 &FCI NORB= 26,NELEC= 10,MS2= 0,
  ORBSYM=1,1,1,1,1,1,2,2,2,3,3,3,4,5,5,5,5,5,5,6,6,6,7,7,7,8,
  ISYM=1,
  OCC=  2,  1,  1,  0,  1,  0,  0,  0,
  CLOSED=  2,  1,  1,  0,  1,  0,  0,  0,
  FOCK=    -15.828021201783,    -15.827815323357,     -1.069319212276,     -0.441180636277,      0.948062580068,
       1.005721044613,      1.873849028408,      1.982442320736,     -0.378213151031,      0.870201372106,      1.946938800227,     -0.378213151031,      0.870201372106,      1.946938800227,      1.982442320736,     -0.983452069665,     -0.016214368078,      0.913318183604,      1.317164281921,      1.998565389134,      2.390091247968,     -0.107144390854,      0.984919942816,      2.059525777810,     -0.107144390854,      0.984919942816,
 /
  0.4688664094047276E+00   1   1   1   1
  0.2753398661463973E-01   2   1   1   1
  0.7715996079828555E-01   2   1   2   1
  0.4506271421653324E+00   2   2   1   1
  0.1702215223406416E-01   2   2   2   1
  0.4592283808326972E+00   2   2   2   2
 -0.7282730493463885E-01   3   1   1   1
  0.4722570929307372E-02   3   1   2   1
 -0.6207803474289992E-01   3   1   2   2
  0.4397695795028080E-01   3   1   3   1
  0.3013477784809663E-01   3   2   1   1
 -0.1959792178508673E-04   3   2   2   1
  0.3187599301088522E-01   3   2   2   2
 -0.9265502771908227E-02   3   2   3   1
  0.2355892344162133E-01   3   2   3   2
  0.3873516066215009E+00   3   3   1   1
  0.4139526296671431E-02   3   3   2   1
  0.3799292644843148E+00   3   3   2   2
 -0.4645585636321314E-01   3   3   3   1
  0.1899123847911013E-01   3   3   3   2
  0.3436760809589026E+00   3   3   3   3
 -0.1151741302696805E-01   4   1   1   1
 -0.1733901054978068E-01   4   1   2   1
 -0.8403702754006521E-03   4   1   2   2
  0.9814832530744774E-02   4   1   3   1
  0.1733029937339108E-01   4   1   3   2
 -0.3891320999724885E-02   4   1   3   3
  0.2496092686762357E-01   4   1   4   1
 -0.7663703015812227E-01   4   2   1   1
  0.1308881362085288E-01   4   2   2   1
 -0.7347197524680291E-01   4   2   2   2
  0.4855185150162780E-01   4   2   3   1
 -0.7451199156286791E-02   4   2   3   2
 -0.4982995346805546E-01   4   2   3   3
  0.1232290512075006E-01   4   2   4   1
  0.6683986433976311E-01   4   2   4   2
  0.4157316130806926E-01   4   3   1   1
  0.5639749278281975E-01   4   3   2   1
  0.2919422089114782E-01   4   3   2   2
 -0.3311104061059209E-02   4   3   3   1
  0.6540671530482562E-02   4   3   3   2
  0.1632895762602236E-01   4   3   3   3
 -0.1049521012160016E-01   4   3   4   1
  0.3855715379595587E-02   4   3   4   2
  0.5045118758344520E-01   4   3   4   3
  0.4345293010688291E+00   4   4   1   1
  0.3615825211305480E-01   4   4   2   1
  0.4351150798523529E+00   4   4   2   2
 -0.6234067466173332E-01   4   4   3   1
  0.2892324702013430E-01   4   4   3   2
  0.3696394984228318E+00   4   4   3   3
 -0.9503914778178246E-02   4   4   4   1
 -0.7197940798027341E-01   4   4   4   2
  0.4397672200864004E-01   4   4   4   3
  0.4364478824884164E+00   4   4   4   4
  0.1415101364314676E-01   5   1   1   1
  0.9665038297519088E-02   5   1   2   1
  0.3835318582025580E-01   5   1   2   2
 -0.8911651488062271E-03   5   1   3   1
  0.1521327985335181E-02   5   1   3   2
  0.8608268272859734E-02   5   1   3   3
  0.9226515712270587E-03   5   1   4   1
 -0.8294740355279082E-02   5   1   4   2
  0.3470073458837575E-02   5   1   4   3
  0.2906703842067709E-01   5   1   4   4
  0.3531381122806622E-01   5   1   5   1
  0.3349108630140528E-01   5   2   1   1
  0.6478343917849483E-01   5   2   2   1
  0.2073739842805153E-01   5   2   2   2
 -0.2062336692429834E-02   5   2   3   1
  0.2941439867061121E-02   5   2   3   2
  0.9526755477975227E-02   5   2   3   3
 -0.1508402358762887E-01   5   2   4   1
  0.6281313122472258E-02   5   2   4   2
  0.4630641211168865E-01   5   2   4   3
  0.3483794210920291E-01   5   2   4   4
  0.5018789049503586E-02   5   2   5   1
  0.6937685505955953E-01   5   2   5   2
  0.3074965013958972E-02   5   3   1   1
 -0.1726461375379712E-02   5   3   2   1
  0.2391256966473592E-02   5   3   2   2
 -0.2095934382869511E-03   5   3   3   1
 -0.1901363980886482E-02   5   3   3   2
  0.3452863868285656E-02   5   3   3   3
 -0.2311277933278833E-03   5   3   4   1
  0.6512690272348259E-02   5   3   4   2
 -0.1951202653405301E-02   5   3   4   3
 -0.3453107882067213E-03   5   3   4   4
 -0.6887886670342680E-03   5   3   5   1
 -0.8904774073946188E-03   5   3   5   2
  0.7734918269987786E-02   5   3   5   3
  0.5890232964260502E-02   5   4   1   1
 -0.1542946177393312E-01   5   4   2   1
  0.1051576154599156E-01   5   4   2   2
 -0.1543905922668176E-02   5   4   3   1
  0.1136843504209771E-01   5   4   3   2
  0.5941074806582853E-02   5   4   3   3
  0.1391792931184458E-01   5   4   4   1
 -0.6638930742187544E-03   5   4   4   2
 -0.9242288328917232E-02   5   4   4   3
  0.2079319765409738E-02   5   4   4   4
  0.1516991310244128E-03   5   4   5   1
 -0.1379362546413331E-01   5   4   5   2
  0.9733552690398238E-03   5   4   5   3
  0.1363478074412275E-01   5   4   5   4
  0.4494593197666038E+00   5   5   1   1
  0.1908264633230282E-01   5   5   2   1
  0.4517867382657948E+00   5   5   2   2
 -0.5487839967393882E-01   5   5   3   1
  0.2549949045997132E-01   5   5   3   2
  0.3749387920315823E+00   5   5   3   3
 -0.4348170476291116E-02   5   5   4   1
 -0.6368110647449982E-01   5   5   4   2
  0.3062666695438424E-01   5   5   4   3
  0.4183686242363344E+00   5   5   4   4
  0.3391836262826929E-01   5   5   5   1
  0.2121745974483851E-01   5   5   5   2
  0.4394873042764813E-02   5   5   5   3
  0.9702852117504344E-02   5   5   5   4
  0.4672800927583783E+00   5   5   5   5
  0.1792167243566484E-18   6   1   1   1
 -0.2554822294846914E-18   6   1   2   1
 -0.5918909927250491E-18   6   1   2   2
 -0.7467572520649834E-19   6   1   3   1
 -0.5575509246833172E-19   6   1   3   2
  0.1492521834257201E-19   6   1   3   3
 -0.5706867644230014E-19   6   1   4   1
 -0.1331940395121000E-18   6   1   4   2
 -0.9824440885544555E-19   6   1   4   3
 -0.3634256116962971E-18   6   1   4   4
 -0.1480710336400337E-18   6   1   5   1
 -0.1949006371162354E-18   6   1   5   2
 -0.2301753764057315E-18   6   1   5   3
 -0.1462760832527899E-18   6   1   5   4
 -0.1579405677064297E-17   6   1   5   5
  0.3162902125085667E-01   6   1   6   1
 -0.8272286804273012E-18   6   2   1   1
 -0.1687799549811495E-17   6   2   2   1
 -0.5296292386909457E-18   6   2   2   2
 -0.5182845128840045E-19   6   2   3   1
 -0.1539470918269014E-18   6   2   3   2
 -0.2108608144626563E-18   6   2   3   3
  0.2284700450277845E-18   6   2   4   1
 -0.2808957828929349E-18   6   2   4   2
 -0.1242174407248247E-17   6   2   4   3
 -0.8891676668978368E-18   6   2   4   4
 -0.2168298975882650E-18   6   2   5   1
 -0.1608417977756295E-17   6   2   5   2
  0.4937921323242094E-19   6   2   5   3
  0.2602867892553635E-18   6   2   5   4
 -0.4059627630708402E-18   6   2   5   5
 -0.3273525786582226E-02   6   2   6   1
  0.7397755802961131E-02   6   2   6   2
  0.2181072596843182E-18   6   3   1   1
 -0.7107905889417551E-19   6   3   2   1
  0.1115038000964650E-18   6   3   2   2
 -0.1307632108666061E-18   6   3   3   1
  0.7191291675949104E-19   6   3   3   2
  0.1661420752608013E-18   6   3   3   3
 -0.2319452421159090E-19   6   3   4   1
 -0.2728107039140585E-18   6   3   4   2
  0.2366340871423222E-19   6   3   4   3
  0.9008519038332488E-19   6   3   4   4
 -0.2372820616700802E-18   6   3   5   1
 -0.9393664308113232E-20   6   3   5   2
 -0.1549009613260367E-20   6   3   5   3
  0.3946338843164893E-19   6   3   5   4
  0.2586630436460878E-18   6   3   5   5
 -0.4576146608794545E-02   6   3   6   1
  0.6455565851739184E-03   6   3   6   2
  0.6799404760283598E-02   6   3   6   3
 -0.3397545371075771E-18   6   4   1   1
 -0.3391576118752542E-19   6   4   2   1
 -0.4752152082241709E-18   6   4   2   2
  0.2189338964494878E-19   6   4   3   1
 -0.3516612638345504E-18   6   4   3   2
 -0.2075765622523695E-18   6   4   3   3
 -0.3065981203890185E-18   6   4   4   1
 -0.1482866621389437E-19   6   4   4   2
 -0.1014278748425776E-18   6   4   4   3
 -0.3967334423958836E-18   6   4   4   4
 -0.1984686703577212E-18   6   4   5   1
 -0.3046657171211669E-20   6   4   5   2
  0.3300391140065940E-19   6   4   5   3
 -0.2137024262703129E-18   6   4   5   4
 -0.2936064433342960E-18   6   4   5   5
 -0.2462806257618608E-02   6   4   6   1
 -0.1155908580287034E-02   6   4   6   2
  0.9844856112927779E-03   6   4   6   3
  0.2218797588931553E-02   6   4   6   4
 -0.2804446006076073E-18   6   5   1   1
 -0.1525526898135174E-18   6   5   2   1
 -0.1094389678782856E-17   6   5   2   2
 -0.2234553513096946E-18   6   5   3   1
 -0.2263004811672587E-19   6   5   3   2
 -0.1493441781865327E-18   6   5   3   3
 -0.1885473606513535E-18   6   5   4   1
  0.1046710428684569E-18   6   5   4   2
  0.3925599937490322E-19   6   5   4   3
 -0.6835293218671962E-18   6   5   4   4
 -0.1690960472978747E-17   6   5   5   1
  0.1095738663708775E-18   6   5   5   2
  0.1129815563705842E-18   6   5   5   3
  0.1363167592487439E-19   6   5   5   4
 -0.1964864222310562E-18   6   5   5   5
 -0.2226083198605824E-01   6   5   6   1
  0.2552910874728941E-02   6   5   6   2
  0.2106394816432598E-02   6   5   6   3
  0.1873432520526866E-02   6   5   6   4
  0.2069027357717117E-01   6   5   6   5
  0.4427592218319651E+00   6   6   1   1
  0.1240102187816245E-01   6   6   2   1
  0.4104738756173580E+00   6   6   2   2
 -0.5876194949092661E-01   6   6   3   1
  0.2481204153276911E-01   6   6   3   2
  0.3698324382005771E+00   6   6   3   3
 -0.8329077104663088E-02   6   6   4   1
 -0.5836015279636853E-01   6   6   4   2
  0.3092123166193050E-01   6   6   4   3
  0.3918217253081731E+00   6   6   4   4
 -0.1315279763231540E-01   6   6   5   1
  0.2246354221704664E-01   6   6   5   2
  0.3663854458200798E-02   6   6   5   3
  0.7594420880103044E-02   6   6   5   4
  0.4220488959129569E+00   6   6   5   5
  0.1799370451590884E-17   6   6   6   1
 -0.6526684925352076E-18   6   6   6   2
  0.2613337432785231E-18   6   6   6   3
 -0.2628181271033172E-18   6   6   6   4
 -0.1268336069149688E-18   6   6   6   5
  0.4592209953101773E+00   6   6   6   6
  0.4377339449643347E+00   7   7   1   1
  0.1737570254546890E-01   7   7   2   1
  0.4127276152501983E+00   7   7   2   2
 -0.6333266900503709E-01   7   7   3   1
  0.2697915176268292E-01   7   7   3   2
  0.3694686658459981E+00   7   7   3   3
 -0.8782236125215684E-02   7   7   4   1
 -0.6448283755838047E-01   7   7   4   2
  0.3400212650301938E-01   7   7   4   3
  0.4016458219236781E+00   7   7   4   4
 -0.2441027209691207E-02   7   7   5   1
  0.2460372647110854E-01   7   7   5   2
  0.2974219718257219E-02   7   7   5   3
  0.6092397420872885E-02   7   7   5   4
  0.4130877764614684E+00   7   7   5   5
  0.2186760463026433E-01   7   7   6   1
 -0.2045215520616487E-02   7   7   6   2
 -0.2982374892701947E-02   7   7   6   3
 -0.1564116914551362E-02   7   7   6   4
 -0.1508334306219009E-01   7   7   6   5
  0.4263806309651059E+00   7   7   6   6
  0.4349302414498620E+00   7   7   7   7
 -0.8980562319003213E-01   8   7   1   1
  0.8595662665768940E-02   8   7   2   1
 -0.7784989722252594E-01   8   7   2   2
  0.5020298051466814E-01   8   7   3   1
 -0.9439446684295652E-02   8   7   3   2
 -0.5982124459341114E-01   8   7   3   3
  0.1096778498566697E-01   8   7   4   1
  0.5269623816659815E-01   8   7   4   2
 -0.1081800332277338E-02   8   7   4   3
 -0.7556808781258066E-01   8   7   4   4
 -0.1111844369879062E-03   8   7   5   1
 -0.9211340401373768E-03   8   7   5   2
 -0.4712542464648532E-02   8   7   5   3
 -0.3093890167254497E-02   8   7   5   4
 -0.7052999434953162E-01   8   7   5   5
 -0.5734108560786127E-02   8   7   6   1
  0.1644801092028624E-02   8   7   6   2
  0.6588499765046607E-02   8   7   6   3
  0.1266454177974914E-02   8   7   6   4
  0.2860307373877801E-02   8   7   6   5
 -0.7546820937476206E-01   8   7   6   6
 -0.8403241955683780E-01   8   7   7   7
  0.7030492844831626E-01   8   7   8   7
  0.4063875905059113E+00   8   8   1   1
  0.1503252515272660E-01   8   8   2   1
  0.3873708712923263E+00   8   8   2   2
 -0.5948764611696933E-01   8   8   3   1
  0.2745005660433131E-01   8   8   3   2
  0.3524713767048432E+00   8   8   3   3
 -0.5848644428958175E-02   8   8   4   1
 -0.6113895253870172E-01   8   8   4   2
  0.3116642760331705E-01   8   8   4   3
  0.3860901477733299E+00   8   8   4   4
  0.5686715324013589E-03   8   8   5   1
  0.2080634759829956E-01   8   8   5   2
  0.1589248494609162E-02   8   8   5   3
  0.5059071800994464E-02   8   8   5   4
  0.3790765041847420E+00   8   8   5   5
  0.1480929163806941E-01   8   8   6   1
 -0.1373006538453531E-02   8   8   6   2
 -0.2266760360634710E-02   8   8   6   3
 -0.6432159177991860E-03   8   8   6   4
 -0.9549423697511725E-02   8   8   6   5
  0.3865173168925983E+00   8   8   6   6
  0.4038427561334922E+00   8   8   7   7
 -0.7696713903626312E-01   8   8   8   7
  0.3915675577126566E+00   8   8   8   8
  0.2993209452729322E-01   9   7   1   1
  0.5488864149417272E-01   9   7   2   1
  0.1871187054040865E-01   9   7   2   2
 -0.3056347626303586E-02   9   7   3   1
  0.2326675585218988E-02   9   7   3   2
  0.9285516110446704E-02   9   7   3   3
 -0.1279623979945435E-01   9   7   4   1
  0.2824964752685732E-02   9   7   4   2
  0.4043455917660432E-01   9   7   4   3
  0.3346511749876351E-01   9   7   4   4
  0.4278469846538945E-02   9   7   5   1
  0.4047662402379371E-01   9   7   5   2
 -0.1283992810538479E-02   9   7   5   3
 -0.8874812708820859E-02   9   7   5   4
  0.2010252092718713E-01   9   7   5   5
  0.8227206353927385E-03   9   7   6   1
  0.6860360013043329E-02   9   7   6   2
 -0.5387026769599913E-03   9   7   6   3
 -0.1565292350950826E-02   9   7   6   4
 -0.2870300482756880E-03   9   7   6   5
  0.1867686768118655E-01   9   7   6   6
  0.2321933681481323E-01   9   7   7   7
 -0.4632254938500800E-03   9   7   8   7
  0.2005922567677576E-01   9   7   8   8
  0.5206162967178243E-01   9   7   9   7
  0.5026560254565336E-02   9   8   1   1
 -0.1193222153468085E-01   9   8   2   1
  0.1007273817334465E-01   9   8   2   2
 -0.4865647579407120E-03   9   8   3   1
  0.9960712925815990E-02   9   8   3   2
  0.4956892546893870E-02   9   8   3   3
  0.1201928120623869E-01   9   8   4   1
 -0.3509202172734430E-03   9   8   4   2
 -0.6539644126041869E-02   9   8   4   3
  0.3470746461599269E-02   9   8   4   4
  0.1164126494986764E-02   9   8   5   1
 -0.8006884120320874E-02   9   8   5   2
  0.4817731374834100E-04   9   8   5   3
  0.6281057910034084E-02   9   8   5   4
  0.7652008087858447E-02   9   8   5   5
  0.3367450780791480E-03   9   8   6   1
 -0.1622027116343599E-02   9   8   6   2
 -0.1035965647395045E-03   9   8   6   3
  0.1835565293530264E-02   9   8   6   4
  0.2136520883734791E-04   9   8   6   5
  0.5690843404137364E-02   9   8   6   6
  0.4886529884331680E-02   9   8   7   7
 -0.9569875458935871E-03   9   8   8   7
  0.4573459760941371E-02   9   8   8   8
 -0.1075011831479808E-01   9   8   9   7
  0.9815619497684790E-02   9   8   9   8
  0.4483819066441291E+00   9   9   1   1
  0.1775281601152129E-01   9   9   2   1
  0.4417185031905844E+00   9   9   2   2
 -0.5627896391657183E-01   9   9   3   1
  0.2457026685178337E-01   9   9   3   2
  0.3741707656791900E+00   9   9   3   3
 -0.6089359564403901E-02   9   9   4   1
 -0.6244036497386662E-01   9   9   4   2
  0.3112521023705869E-01   9   9   4   3
  0.4127924771201896E+00   9   9   4   4
  0.2186953801740733E-01   9   9   5   1
  0.2134172311585802E-01   9   9   5   2
  0.3475641465866751E-02   9   9   5   3
  0.7483659139812818E-02   9   9   5   4
  0.4405204923685300E+00   9   9   5   5
  0.1930719193544151E-01   9   9   6   1
 -0.2189572260463252E-02   9   9   6   2
 -0.1553616979474668E-02   9   9   6   3
 -0.1110644160521291E-02   9   9   6   4
 -0.8698958338997968E-02   9   9   6   5
  0.4262676064431536E+00   9   9   6   6
  0.4302066460509034E+00   9   9   7   7
 -0.7472864415157091E-01   9   9   8   7
  0.3901921056524043E+00   9   9   8   8
  0.2017064866564029E-01   9   9   9   7
  0.7938386797367025E-02   9   9   9   8
  0.4660357846769650E+00   9   9   9   9
  0.4377339449643344E+00  10  10   1   1
  0.1737570254546891E-01  10  10   2   1
  0.4127276152501981E+00  10  10   2   2
 -0.6333266900503665E-01  10  10   3   1
  0.2697915176268298E-01  10  10   3   2
  0.3694686658459953E+00  10  10   3   3
 -0.8782236125215587E-02  10  10   4   1
 -0.6448283755838052E-01  10  10   4   2
  0.3400212650301886E-01  10  10   4   3
  0.4016458219236780E+00  10  10   4   4
 -0.2441027209691249E-02  10  10   5   1
  0.2460372647110852E-01  10  10   5   2
  0.2974219718257448E-02  10  10   5   3
  0.6092397420872926E-02  10  10   5   4
  0.4130877764614681E+00  10  10   5   5
 -0.2186760463026431E-01  10  10   6   1
  0.2045215520616483E-02  10  10   6   2
  0.2982374892701934E-02  10  10   6   3
  0.1564116914551360E-02  10  10   6   4
  0.1508334306219008E-01  10  10   6   5
  0.4263806309651056E+00  10  10   6   6
  0.4024932049837956E+00  10  10   7   7
 -0.7610589953095123E-01  10  10   8   7
  0.3780842574116597E+00  10  10   8   8
  0.2176252244689864E-01  10  10   9   7
  0.4610661289639363E-02  10  10   9   8
  0.4038793948114833E+00  10  10   9   9
  0.4349302414498615E+00  10  10  10  10
 -0.8980562319003212E-01  11  10   1   1
  0.8595662665768975E-02  11  10   2   1
 -0.7784989722252597E-01  11  10   2   2
  0.5020298051466847E-01  11  10   3   1
 -0.9439446684295746E-02  11  10   3   2
 -0.5982124459341373E-01  11  10   3   3
  0.1096778498566695E-01  11  10   4   1
  0.5269623816659794E-01  11  10   4   2
 -0.1081800332277460E-02  11  10   4   3
 -0.7556808781257970E-01  11  10   4   4
 -0.1111844369879253E-03  11  10   5   1
 -0.9211340401373126E-03  11  10   5   2
 -0.4712542464648328E-02  11  10   5   3
 -0.3093890167254596E-02  11  10   5   4
 -0.7052999434953153E-01  11  10   5   5
  0.5734108560786125E-02  11  10   6   1
 -0.1644801092028627E-02  11  10   6   2
 -0.6588499765046592E-02  11  10   6   3
 -0.1266454177974910E-02  11  10   6   4
 -0.2860307373877806E-02  11  10   6   5
 -0.7546820937476204E-01  11  10   6   6
 -0.7610589953095145E-01  11  10   7   7
  0.5429554596167162E-01  11  10   8   7
 -0.7150752314007300E-01  11  10   8   8
 -0.9301127476039435E-03  11  10   9   7
 -0.9940112737899525E-03  11  10   9   8
 -0.6965631581205135E-01  11  10   9   9
 -0.8403241955683764E-01  11  10  10  10
  0.7030492844831622E-01  11  10  11  10
  0.4063875905059117E+00  11  11   1   1
  0.1503252515272658E-01  11  11   2   1
  0.3873708712923264E+00  11  11   2   2
 -0.5948764611696900E-01  11  11   3   1
  0.2745005660433136E-01  11  11   3   2
  0.3524713767048420E+00  11  11   3   3
 -0.5848644428958202E-02  11  11   4   1
 -0.6113895253870194E-01  11  11   4   2
  0.3116642760331685E-01  11  11   4   3
  0.3860901477733303E+00  11  11   4   4
  0.5686715324013242E-03  11  11   5   1
  0.2080634759829960E-01  11  11   5   2
  0.1589248494609364E-02  11  11   5   3
  0.5059071800994429E-02  11  11   5   4
  0.3790765041847423E+00  11  11   5   5
 -0.1480929163806942E-01  11  11   6   1
  0.1373006538453533E-02  11  11   6   2
  0.2266760360634711E-02  11  11   6   3
  0.6432159177991867E-03  11  11   6   4
  0.9549423697511732E-02  11  11   6   5
  0.3865173168925983E+00  11  11   6   6
  0.3780842574116605E+00  11  11   7   7
 -0.7150752314007339E-01  11  11   8   7
  0.3644716977495273E+00  11  11   8   8
  0.1921608296910749E-01  11  11   9   7
  0.4313989335279673E-02  11  11   9   8
  0.3731358825763300E+00  11  11   9   9
  0.4038427561334924E+00  11  11  10  10
 -0.7696713903626290E-01  11  11  11  10
  0.3915675577126562E+00  11  11  11  11
  0.2993209452729326E-01  12  10   1   1
  0.5488864149417270E-01  12  10   2   1
  0.1871187054040869E-01  12  10   2   2
 -0.3056347626303621E-02  12  10   3   1
  0.2326675585219018E-02  12  10   3   2
  0.9285516110446885E-02  12  10   3   3
 -0.1279623979945433E-01  12  10   4   1
  0.2824964752685698E-02  12  10   4   2
  0.4043455917660430E-01  12  10   4   3
  0.3346511749876348E-01  12  10   4   4
  0.4278469846538946E-02  12  10   5   1
  0.4047662402379371E-01  12  10   5   2
 -0.1283992810538480E-02  12  10   5   3
 -0.8874812708820854E-02  12  10   5   4
  0.2010252092718717E-01  12  10   5   5
 -0.8227206353927413E-03  12  10   6   1
 -0.6860360013043327E-02  12  10   6   2
  0.5387026769599944E-03  12  10   6   3
  0.1565292350950822E-02  12  10   6   4
  0.2870300482756894E-03  12  10   6   5
  0.1867686768118659E-01  12  10   6   6
  0.2176252244689869E-01  12  10   7   7
 -0.9301127476039860E-03  12  10   8   7
  0.1921608296910751E-01  12  10   8   8
  0.3821678594060343E-01  12  10   9   7
 -0.7581093709200141E-02  12  10   9   8
  0.1985751928793199E-01  12  10   9   9
  0.2321933681481326E-01  12  10  10  10
 -0.4632254938500696E-03  12  10  11  10
  0.2005922567677576E-01  12  10  11  11
  0.5206162967178240E-01  12  10  12  10
  0.5026560254565317E-02  12  11   1   1
 -0.1193222153468088E-01  12  11   2   1
  0.1007273817334467E-01  12  11   2   2
 -0.4865647579406652E-03  12  11   3   1
  0.9960712925815990E-02  12  11   3   2
  0.4956892546893763E-02  12  11   3   3
  0.1201928120623871E-01  12  11   4   1
 -0.3509202172734499E-03  12  11   4   2
 -0.6539644126041987E-02  12  11   4   3
  0.3470746461599219E-02  12  11   4   4
  0.1164126494986768E-02  12  11   5   1
 -0.8006884120320898E-02  12  11   5   2
  0.4817731374836183E-04  12  11   5   3
  0.6281057910034079E-02  12  11   5   4
  0.7652008087858441E-02  12  11   5   5
 -0.3367450780791485E-03  12  11   6   1
  0.1622027116343605E-02  12  11   6   2
  0.1035965647395006E-03  12  11   6   3
 -0.1835565293530262E-02  12  11   6   4
 -0.2136520883734856E-04  12  11   6   5
  0.5690843404137368E-02  12  11   6   6
  0.4610661289639352E-02  12  11   7   7
 -0.9940112737899208E-03  12  11   8   7
  0.4313989335279643E-02  12  11   8   8
 -0.7581093709200150E-02  12  11   9   7
  0.6148640791900194E-02  12  11   9   8
  0.6766553670562894E-02  12  11   9   9
  0.4886529884331668E-02  12  11  10  10
 -0.9569875458936045E-03  12  11  11  10
  0.4573459760941424E-02  12  11  11  11
 -0.1075011831479810E-01  12  11  12  10
  0.9815619497684797E-02  12  11  12  11
  0.4483819066441291E+00  12  12   1   1
  0.1775281601152131E-01  12  12   2   1
  0.4417185031905844E+00  12  12   2   2
 -0.5627896391657194E-01  12  12   3   1
  0.2457026685178332E-01  12  12   3   2
  0.3741707656791899E+00  12  12   3   3
 -0.6089359564403957E-02  12  12   4   1
 -0.6244036497386662E-01  12  12   4   2
  0.3112521023705894E-01  12  12   4   3
  0.4127924771201893E+00  12  12   4   4
  0.2186953801740733E-01  12  12   5   1
  0.2134172311585803E-01  12  12   5   2
  0.3475641465866776E-02  12  12   5   3
  0.7483659139812797E-02  12  12   5   4
  0.4405204923685301E+00  12  12   5   5
 -0.1930719193544151E-01  12  12   6   1
  0.2189572260463249E-02  12  12   6   2
  0.1553616979474668E-02  12  12   6   3
  0.1110644160521292E-02  12  12   6   4
  0.8698958338997970E-02  12  12   6   5
  0.4262676064431535E+00  12  12   6   6
  0.4038793948114835E+00  12  12   7   7
 -0.6965631581205123E-01  12  12   8   7
  0.3731358825763295E+00  12  12   8   8
  0.1985751928793195E-01  12  12   9   7
  0.6766553670562891E-02  12  12   9   8
  0.4301727046624310E+00  12  12   9   9
  0.4302066460509031E+00  12  12  10  10
 -0.7472864415157066E-01  12  12  11  10
  0.3901921056524044E+00  12  12  11  11
  0.2017064866564033E-01  12  12  12  10
  0.7938386797367050E-02  12  12  12  11
  0.4660357846769650E+00  12  12  12  12
  0.4427592218319644E+00  13  13   1   1
  0.1240102187816243E-01  13  13   2   1
  0.4104738756173574E+00  13  13   2   2
 -0.5876194949092650E-01  13  13   3   1
  0.2481204153276914E-01  13  13   3   2
  0.3698324382005769E+00  13  13   3   3
 -0.8329077104663005E-02  13  13   4   1
 -0.5836015279636853E-01  13  13   4   2
  0.3092123166193077E-01  13  13   4   3
  0.3918217253081718E+00  13  13   4   4
 -0.1315279763231540E-01  13  13   5   1
  0.2246354221704660E-01  13  13   5   2
  0.3663854458200763E-02  13  13   5   3
  0.7594420880102981E-02  13  13   5   4
  0.4220488959129563E+00  13  13   5   5
  0.6988802883399968E-18  13  13   6   1
 -0.5380571632174049E-18  13  13   6   2
  0.3105404394081433E-18  13  13   6   3
 -0.2136889176455165E-18  13  13   6   4
  0.3470506667716195E-18  13  13   6   5
  0.4379934066975883E+00  13  13   6   6
  0.4263806309651051E+00  13  13   7   7
 -0.7546820937476184E-01  13  13   8   7
  0.3865173168925978E+00  13  13   8   8
  0.1867686768118652E-01  13  13   9   7
  0.5690843404137339E-02  13  13   9   8
  0.4262676064431528E+00  13  13   9   9
  0.4263806309651049E+00  13  13  10  10
 -0.7546820937476195E-01  13  13  11  10
  0.3865173168925979E+00  13  13  11  11
  0.1867686768118655E-01  13  13  12  10
  0.5690843404137346E-02  13  13  12  11
  0.4262676064431528E+00  13  13  12  12
  0.4592209953101755E+00  13  13  13  13
  0.4615766197412452E+00  14  14   1   1
 -0.3929664002474804E-02  14  14   2   1
  0.4460514395801110E+00  14  14   2   2
 -0.7769245623570564E-01  14  14   3   1
  0.2949121597661181E-01  14  14   3   2
  0.3880011026334128E+00  14  14   3   3
 -0.6457122819395769E-02  14  14   4   1
 -0.8560179688110559E-01  14  14   4   2
  0.1882040951232157E-01  14  14   4   3
  0.4227288730378868E+00  14  14   4   4
  0.9475863231918874E-02  14  14   5   1
  0.7343936511199330E-02  14  14   5   2
  0.3545005943872135E-02  14  14   5   3
  0.1141852037500373E-01  14  14   5   4
  0.4439751783322089E+00  14  14   5   5
  0.2473772924682069E-18  14  14   6   1
 -0.1190226208803353E-18  14  14   6   2
  0.2755672696239275E-18  14  14   6   3
 -0.2976911790494316E-18  14  14   6   4
 -0.1255362110326420E-18  14  14   6   5
  0.4413908616783196E+00  14  14   6   6
  0.4343327866126268E+00  14  14   7   7
 -0.9652941302061072E-01  14  14   8   7
  0.4035010141108419E+00  14  14   8   8
  0.8056953813633938E-02  14  14   9   7
  0.9222808795708574E-02  14  14   9   8
  0.4438804519017670E+00  14  14   9   9
  0.4343327866126265E+00  14  14  10  10
 -0.9652941302061077E-01  14  14  11  10
  0.4035010141108420E+00  14  14  11  11
  0.8056953813633992E-02  14  14  12  10
  0.9222808795708592E-02  14  14  12  11
  0.4438804519017670E+00  14  14  12  12
  0.4413908616783188E+00  14  14  13  13
  0.4674309094075937E+00  14  14  14  14
  0.3982005264582014E-01  15  14   1   1
  0.7088662327910901E-01  15  14   2   1
  0.1876715879040848E-01  15  14   2   2
 -0.6753489489652278E-02  15  14   3   1
 -0.2280033693799153E-02  15  14   3   2
  0.1195228158401197E-01  15  14   3   3
 -0.2369543487074339E-01  15  14   4   1
  0.8390693502430963E-03  15  14   4   2
  0.5380222737918713E-01  15  14   4   3
  0.3959218340418311E-01  15  14   4   4
 -0.3652826981914254E-03  15  14   5   1
  0.6122300955895856E-01  15  14   5   2
 -0.2004534853081173E-02  15  14   5   3
 -0.1696859452694702E-01  15  14   5   4
  0.2208134589980341E-01  15  14   5   5
  0.4674524622834255E-19  15  14   6   1
 -0.1543220260976118E-17  15  14   6   2
  0.2297581487503573E-19  15  14   6   3
  0.7602086206682885E-19  15  14   6   4
  0.2422024585984390E-18  15  14   6   5
  0.2981335081783197E-01  15  14   6   6
  0.3216047791534513E-01  15  14   7   7
 -0.4406043297917009E-02  15  14   8   7
  0.2727591129274031E-01  15  14   8   8
  0.5290738761399090E-01  15  14   9   7
 -0.1375426994671588E-01  15  14   9   8
  0.2469353493359664E-01  15  14   9   9
  0.3216047791534512E-01  15  14  10  10
 -0.4406043297916985E-02  15  14  11  10
  0.2727591129274032E-01  15  14  11  11
  0.5290738761399089E-01  15  14  12  10
 -0.1375426994671592E-01  15  14  12  11
  0.2469353493359665E-01  15  14  12  12
  0.2981335081783188E-01  15  14  13  13
  0.1220668301261082E-01  15  14  14  14
  0.7182639704309582E-01  15  14  15  14
  0.4664352788736432E+00  15  15   1   1
  0.3010958392739466E-01  15  15   2   1
  0.4664435490689143E+00  15  15   2   2
 -0.7362861671625753E-01  15  15   3   1
  0.2240032952099338E-01  15  15   3   2
  0.3869581294678635E+00  15  15   3   3
 -0.1835256373354262E-01  15  15   4   1
 -0.8903500966226374E-01  15  15   4   2
  0.3809970159721253E-01  15  15   4   3
  0.4497613134782117E+00  15  15   4   4
  0.3763011404719409E-01  15  15   5   1
  0.2953496580752321E-01  15  15   5   2
  0.5531961749892979E-03  15  15   5   3
  0.9414095430249486E-03  15  15   5   4
  0.4599558451304404E+00  15  15   5   5
 -0.4723955353492587E-18  15  15   6   1
 -0.6703531948793169E-18  15  15   6   2
  0.1800587422355740E-18  15  15   6   3
 -0.2752677718164653E-18  15  15   6   4
 -0.9651548035423938E-18  15  15   6   5
  0.4222474970258310E+00  15  15   6   6
  0.4258096500978096E+00  15  15   7   7
 -0.8940314269591085E-01  15  15   8   7
  0.3983832535441234E+00  15  15   8   8
  0.3127265670109063E-01  15  15   9   7
  0.1957667455122034E-02  15  15   9   8
  0.4518706118439188E+00  15  15   9   9
  0.4258096500978093E+00  15  15  10  10
 -0.8940314269591088E-01  15  15  11  10
  0.3983832535441236E+00  15  15  11  11
  0.3127265670109066E-01  15  15  12  10
  0.1957667455122044E-02  15  15  12  11
  0.4518706118439188E+00  15  15  12  12
  0.4222474970258305E+00  15  15  13  13
  0.4583064963838649E+00  15  15  14  14
  0.3756462282479793E-01  15  15  15  14
  0.4882645638909269E+00  15  15  15  15
  0.5334669975332856E-01  16  14   1   1
 -0.2027489771756793E-01  16  14   2   1
  0.5131791967571905E-01  16  14   2   2
 -0.3072669024029552E-01  16  14   3   1
  0.2177176475265529E-01  16  14   3   2
  0.3672525049978865E-01  16  14   3   3
  0.1126340449312566E-01  16  14   4   1
 -0.3451409704635108E-01  16  14   4   2
 -0.7065335125615541E-02  16  14   4   3
  0.4461559593182291E-01  16  14   4   4