 &FCI NORB= 26,NELEC=  8,MS2= 0,
  ORBSYM=1,1,1,1,1,1,2,2,2,3,3,3,4,5,5,5,5,5,5,6,6,6,7,7,7,8,
  ISYM=1,
  IUHF=1,
  OCC=  1,  1,  1,  0,  1,  0,  0,  0,
  CLOSED=  1,  1,  1,  0,  1,  0,  0,  0,
 /
  0.6373641311073261E+00   1   1   1   1
  0.1191741475087090E+00   2   1   1   1
  0.6724190431718351E-01   2   1   2   1
  0.4678632871228655E+00   2   2   1   1
  0.3168445899682398E-01   2   2   2   1
  0.4483759498728950E+00   2   2   2   2
 -0.6168694076389532E-01   3   1   1   1
 -0.3629100920821016E-01   3   1   2   1
 -0.3107131832835017E-01   3   1   2   2
  0.3128229075145365E-01   3   1   3   1
 -0.1246872961665773E+00   3   2   1   1
 -0.3898240625823730E-01   3   2   2   1
 -0.7274055991774987E-01   3   2   2   2
  0.2096387157144152E-01   3   2   3   1
  0.5515984542930380E-01   3   2   3   2
  0.3947604971685616E+00   3   3   1   1
  0.3522890795941829E-01   3   3   2   1
  0.3557753531014619E+00   3   3   2   2
 -0.2299708753089091E-01   3   3   3   1
 -0.4516150847961758E-01   3   3   3   2
  0.3185628517708695E+00   3   3   3   3
 -0.7183543387096444E-01   4   1   1   1
 -0.1733734962370752E-01   4   1   2   1
 -0.5843105784042345E-01   4   1   2   2
  0.1855168282396898E-01   4   1   3   1
  0.2843032343091295E-01   4   1   3   2
 -0.3073247541575670E-01   4   1   3   3
  0.2724843819948836E-01   4   1   4   1
  0.3137064046510749E-01   4   2   1   1
 -0.1596904873473332E-01   4   2   2   1
  0.5784545654345264E-01   4   2   2   2
  0.7331136580198646E-02   4   2   3   1
 -0.1887629992077867E-01   4   2   3   2
  0.2242553859248340E-01   4   2   3   3
 -0.1687705028525546E-01   4   2   4   1
  0.3730580924451654E-01   4   2   4   2
  0.3725002166325703E-01   4   3   1   1
  0.2538464103331179E-01   4   3   2   1
 -0.1216478391469497E-01   4   3   2   2
 -0.2247733457106162E-02   4   3   3   1
 -0.1083352414082340E-01   4   3   3   2
  0.4426351839399434E-02   4   3   3   3
  0.8796523675632627E-02   4   3   4   1
 -0.1580343073927367E-01   4   3   4   2
  0.3075032308617087E-01   4   3   4   3
  0.4077790154502898E+00   4   4   1   1
  0.1836827088498906E-01   4   4   2   1
  0.3777351883288012E+00   4   4   2   2
 -0.5505654063632959E-02   4   4   3   1
 -0.5876006828617758E-01   4   4   3   2
  0.3207672673889458E+00   4   4   3   3
 -0.3282473251409446E-01   4   4   4   1
  0.4530406695106154E-01   4   4   4   2
  0.5396771990719584E-02   4   4   4   3
  0.3554294620494169E+00   4   4   4   4
  0.1288210580267111E-16   5   1   1   1
  0.4720942817852860E-17   5   1   2   1
  0.9327455402818462E-17   5   1   2   2
 -0.3626567278838898E-17   5   1   3   1
 -0.5160274764105111E-17   5   1   3   2
  0.6028623480114675E-17   5   1   3   3
 -0.2098572896685921E-18   5   1   4   1
  0.1287601399862198E-17   5   1   4   2
  0.1250917738447192E-17   5   1   4   3
  0.6764212023228553E-17   5   1   4   4
  0.3388669348285539E-01   5   1   5   1
  0.1753982646688927E-17   5   2   1   1
  0.4690257242145566E-17   5   2   2   1
 -0.5546128152636054E-17   5   2   2   2
 -0.2396454511417095E-17   5   2   3   1
  0.2693278975879711E-18   5   2   3   2
 -0.1297638792802128E-17   5   2   3   3
  0.8061189109366447E-18   5   2   4   1
 -0.3984604853252287E-17   5   2   4   2
  0.2674250753222704E-17   5   2   4   3
 -0.4300240646144493E-17   5   2   4   4
 -0.2166227256716531E-02   5   2   5   1
  0.8033006437437467E-02   5   2   5   2
 -0.5825905870239777E-17   5   3   1   1
 -0.4156860448671871E-17   5   3   2   1
  0.5387880907739158E-18   5   3   2   2
  0.1763159567178757E-17   5   3   3   1
  0.1619621629342880E-17   5   3   3   2
 -0.8778447562136767E-18   5   3   3   3
  0.1159104000866290E-17   5   3   4   1
  0.1860119035884676E-17   5   3   4   2
 -0.2288623313518063E-17   5   3   4   3
  0.1211476688342092E-17   5   3   4   4
  0.1271251895872071E-01   5   3   5   1
 -0.2356051053053002E-02   5   3   5   2
  0.8430387532581548E-02   5   3   5   3
  0.9346067013344778E-17   5   4   1   1
  0.2916000573963209E-17   5   4   2   1
  0.1815788208542655E-17   5   4   2   2
  0.7552024490102559E-19   5   4   3   1
 -0.1302659509191815E-17   5   4   3   2
  0.2750609289704338E-17   5   4   3   3
  0.1150339029995407E-17   5   4   4   1
 -0.1599743034057074E-17   5   4   4   2
  0.3540078438274233E-17   5   4   4   3
  0.4693353268043028E-17   5   4   4   4
  0.8648887341087343E-02   5   4   5   1
 -0.1633053850558225E-03   5   4   5   2
  0.6656144182687787E-02   5   4   5   3
  0.1022377330198713E-01   5   4   5   4
  0.4942436726004806E+00   5   5   1   1
  0.4764873518141764E-01   5   5   2   1
  0.3981669768972268E+00   5   5   2   2
 -0.9803600869765783E-02   5   5   3   1
 -0.7247491727510205E-01   5   5   3   2
  0.3441475806882389E+00   5   5   3   3
 -0.3307824315683361E-01   5   5   4   1
  0.3246566966781361E-01   5   5   4   2
  0.2776139747929163E-01   5   5   4   3
  0.3755329145144534E+00   5   5   4   4
  0.1379343632685171E-17   5   5   5   1
 -0.7480028528461697E-18   5   5   5   2
 -0.4830536521063816E-17   5   5   5   3
  0.7384793270403262E-17   5   5   5   4
  0.4625430151610477E+00   5   5   5   5
  0.3197177464170151E-01   6   1   1   1
  0.2753214350349376E-01   6   1   2   1
  0.1585684963688480E-01   6   1   2   2
 -0.2066863175718062E-01   6   1   3   1
 -0.1095454578217142E-01   6   1   3   2
  0.1263997907976216E-01   6   1   3   3
 -0.5938911085847987E-02   6   1   4   1
 -0.6272651725890740E-02   6   1   4   2
  0.7621139977244087E-02   6   1   4   3
  0.5111142388083566E-03   6   1   4   4
  0.1558195704450599E-17   6   1   5   1
  0.1643009459231266E-17   6   1   5   2
 -0.2307018629945109E-17   6   1   5   3
 -0.1493971965057909E-17   6   1   5   4
 -0.4436548203580177E-02   6   1   5   5
  0.2971820681903759E-01   6   1   6   1
  0.5598215475815474E-01   6   2   1   1
  0.3913966407517892E-01   6   2   2   1
 -0.1159044249687542E-01   6   2   2   2
 -0.1553057308962744E-01   6   2   3   1
 -0.1997119548634730E-01   6   2   3   2
  0.6982430509826589E-02   6   2   3   3
 -0.2712263758179664E-02   6   2   4   1
 -0.2188267306342473E-01   6   2   4   2
  0.2159576029476506E-01   6   2   4   3
 -0.2918241513882358E-02   6   2   4   4
  0.1534257994559911E-17   6   2   5   1
  0.4563058114908890E-17   6   2   5   2
 -0.2723691508448040E-17   6   2   5   3
  0.3575546621649741E-17   6   2   5   4
  0.2690656911704561E-01   6   2   5   5
  0.6915005327670407E-02   6   2   6   1
  0.4440390534739377E-01   6   2   6   2
 -0.6324383750918751E-01   6   3   1   1
 -0.2031173912247571E-01   6   3   2   1
 -0.3992798484066829E-01   6   3   2   2
  0.1575455406421662E-01   6   3   3   1
  0.1591887162832329E-01   6   3   3   2
 -0.2625338176562483E-01   6   3   3   3
  0.1328560203829807E-01   6   3   4   1
  0.3292101523013416E-03   6   3   4   2
 -0.3424854388030862E-02   6   3   4   3
 -0.2086523759210277E-01   6   3   4   4
 -0.3413563971974784E-17   6   3   5   1
 -0.7282109355778095E-18   6   3   5   2
  0.5230322599919883E-18   6   3   5   3
 -0.2035430998266434E-17   6   3   5   4
 -0.3729230601064026E-01   6   3   5   5
 -0.8326831773381130E-02   6   3   6   1
 -0.1067959964167445E-01   6   3   6   2
  0.1698926900037948E-01   6   3   6   3
 -0.8757776825835560E-02   6   4   1   1
  0.2265980039309859E-02   6   4   2   1
 -0.2895110912203426E-01   6   4   2   2
  0.6652234850204367E-02   6   4   3   1
  0.4152004181151549E-02   6   4   3   2
 -0.1018143514651073E-01   6   4   3   3
  0.8505710253614171E-02   6   4   4   1
 -0.1105129877679442E-01   6   4   4   2
  0.1154385240678189E-01   6   4   4   3
 -0.9915761235207389E-02   6   4   4   4
 -0.3464739979284083E-17   6   4   5   1
  0.2389122116533861E-17   6   4   5   2
 -0.1982802741605689E-17   6   4   5   3
  0.9385807794570778E-18   6   4   5   4
 -0.4587300195952237E-03   6   4   5   5
 -0.8298516726407613E-02   6   4   6   1
  0.1289197402852577E-01   6   4   6   2
  0.3950350693884171E-02   6   4   6   3
  0.1524759947917843E-01   6   4   6   4
  0.2651456960909531E-17   6   5   1   1
  0.2691466232379735E-18   6   5   2   1
  0.5730221308832412E-17   6   5   2   2
 -0.2229484286091959E-17   6   5   3   1
 -0.8644747870463839E-18   6   5   3   2
  0.1960506273896471E-17   6   5   3   3
 -0.3640876709026570E-17   6   5   4   1
  0.2593149428787814E-17   6   5   4   2
 -0.2777759617311183E-17   6   5   4   3
  0.1435226799186605E-17   6   5   4   4
 -0.1248793826476391E-01   6   5   5   1
  0.6103991236577602E-02   6   5   5   2
 -0.5771103266459104E-02   6   5   5   3
 -0.1122677663476301E-02   6   5   5   4
  0.8594673663767616E-18   6   5   5   5
  0.2393104828979423E-17   6   5   6   1
 -0.2439776097269907E-17   6   5   6   2
 -0.6438617957453836E-18   6   5   6   3
 -0.9501222066483868E-18   6   5   6   4
  0.1363923661522030E-01   6   5   6   5
  0.4759471858082204E+00   6   6   1   1
  0.3752250397876372E-01   6   6   2   1
  0.4293155055286769E+00   6   6   2   2
 -0.2398521050335328E-01   6   6   3   1
 -0.7111235840480221E-01   6   6   3   2
  0.3495573044676622E+00   6   6   3   3
 -0.5008814746894785E-01   6   6   4   1
  0.4866467067896407E-01   6   6   4   2
  0.5351292310282640E-02   6   6   4   3
  0.3746036827785326E+00   6   6   4   4
  0.8781489108541480E-17   6   6   5   1
 -0.4617851402345293E-17   6   6   5   2
 -0.7225180490859603E-18   6   6   5   3
  0.4336032613098530E-17   6   6   5   4
  0.4152503828074852E+00   6   6   5   5
  0.1059026549355357E-01   6   6   6   1
 -0.2392907432911151E-02   6   6   6   2
 -0.4177674497095712E-01   6   6   6   3
 -0.2001997277080425E-01   6   6   6   4
  0.3310981034407575E-17   6   6   6   5
  0.4345564313081899E+00   6   6   6   6
  0.5200372644104726E+00   7   7   1   1
  0.6033280944778094E-01   7   7   2   1
  0.4145919851977800E+00   7   7   2   2
 -0.2207537348444172E-01   7   7   3   1
 -0.8641395916521363E-01   7   7   3   2
  0.3537304416159784E+00   7   7   3   3
 -0.4668600962607339E-01   7   7   4   1
  0.3777662828037853E-01   7   7   4   2
  0.2402778824737944E-01   7   7   4   3
  0.3834387878459110E+00   7   7   4   4
  0.2516284570632253E-01   7   7   5   1
 -0.2742433538145304E-02   7   7   5   2
  0.9831643184724296E-02   7   7   5   3
  0.6217496002864998E-02   7   7   5   4
  0.4513448117500208E+00   7   7   5   5
  0.1201947647277435E-02   7   7   6   1
  0.2857992887631172E-01   7   7   6   2
 -0.4010362826054187E-01   7   7   6   3
 -0.1682915020043585E-02   7   7   6   4
 -0.1008484522661585E-01   7   7   6   5
  0.4251940088237011E+00   7   7   6   6
  0.4827706564752697E+00   7   7   7   7
 -0.1288276045677901E+00   8   7   1   1
 -0.3439961891208100E-01   8   7   2   1
 -0.8197021831257961E-01   8   7   2   2
  0.2278439708608830E-01   8   7   3   1
  0.4295232686321667E-01   8   7   3   2
 -0.5135162015901258E-01   8   7   3   3
  0.3448561434534600E-01   8   7   4   1
 -0.1935590118497113E-01   8   7   4   2
  0.2734844042981591E-02   8   7   4   3
 -0.5438176998622735E-01   8   7   4   4
 -0.4340872101370572E-02   8   7   5   1
 -0.1608627098133646E-02   8   7   5   2
  0.1316941057104748E-02   8   7   5   3
  0.4969103211895942E-02   8   7   5   4
 -0.7501547639568040E-01   8   7   5   5
 -0.3011871137723415E-02   8   7   6   1
 -0.1338302513701805E-01   8   7   6   2
  0.1959840993275994E-01   8   7   6   3
  0.4604208081932876E-02   8   7   6   4
  0.2369630120777785E-02   8   7   6   5
 -0.7855213367833574E-01   8   7   6   6
 -0.9560132750747791E-01   8   7   7   7
  0.6333864457665732E-01   8   7   8   7
  0.4184741368210080E+00   8   8   1   1
  0.4051441794829921E-01   8   8   2   1
  0.3500685858948919E+00   8   8   2   2
 -0.1622165967579950E-01   8   8   3   1
 -0.6122290307622305E-01   8   8   3   2
  0.3106427117516218E+00   8   8   3   3
 -0.3163704102866316E-01   8   8   4   1
  0.2477800264258107E-01   8   8   4   2
  0.1864324282579805E-01   8   8   4   3
  0.3342760688429742E+00   8   8   4   4
  0.1479723044379283E-01   8   8   5   1
 -0.2660135224826214E-02   8   8   5   2
  0.6458178478124074E-02   8   8   5   3
  0.5840083750157948E-02   8   8   5   4
  0.3682661156019778E+00   8   8   5   5
  0.2111094008983794E-02   8   8   6   1
  0.1776080637920881E-01   8   8   6   2
 -0.2435977691211016E-01   8   8   6   3
  0.1437504448417781E-02   8   8   6   4
 -0.5243360683983976E-02   8   8   6   5
  0.3551661991810032E+00   8   8   6   6
  0.3944162815664358E+00   8   8   7   7
 -0.5890364292799516E-01   8   8   8   7
  0.3496801913138116E+00   8   8   8   8
  0.5551196197097608E-01   9   7   1   1
  0.4250137690636181E-01   9   7   2   1
 -0.1126323734140620E-01   9   7   2   2
 -0.1150263045289323E-01   9   7   3   1
 -0.1157191941123591E-01   9   7   3   2
  0.9242658593103319E-02   9   7   3   3
  0.5798219414908379E-02   9   7   4   1
 -0.1966604000505967E-01   9   7   4   2
  0.2804646568224974E-01   9   7   4   3
 -0.1395741113308632E-02   9   7   4   4
  0.7286949119697751E-02   9   7   5   1
  0.6696480722998089E-02   9   7   5   2
  0.2319745856158693E-02   9   7   5   3
  0.4851700181735212E-02   9   7   5   4
  0.2631859305203918E-01   9   7   5   5
  0.1798393919069824E-01   9   7   6   1
  0.2574655052491935E-01   9   7   6   2
 -0.5488815520638991E-02   9   7   6   3
  0.7553281380554250E-02   9   7   6   4
  0.3422457399996656E-02   9   7   6   5
  0.2925282304397931E-02   9   7   6   6
  0.3005072793014478E-01   9   7   7   7
 -0.7020992871625120E-02   9   7   8   7
  0.1615882085067272E-01   9   7   8   8
  0.5517485494076474E-01   9   7   9   7
 -0.2049317428688317E-01   9   8   1   1
 -0.1577943008686434E-01   9   8   2   1
 -0.3157300061562652E-02   9   8   2   2
  0.1025369729613973E-01   9   8   3   1
 -0.3761550395029248E-04   9   8   3   2
 -0.4491989335451138E-02   9   8   3   3
  0.9550926250444236E-04   9   8   4   1
  0.1075462246607931E-01   9   8   4   2
 -0.5040345286842487E-02   9   8   4   3
  0.5413713952143129E-02   9   8   4   4
 -0.1771535916733229E-02   9   8   5   1
 -0.1588110928044984E-02   9   8   5   2
  0.1378482504229227E-02   9   8   5   3
 -0.3353715185536258E-03   9   8   5   4
 -0.6413648490103743E-02   9   8   5   5
 -0.9984665209399113E-02   9   8   6   1
 -0.8050474111631577E-02   9   8   6   2
  0.6387326791632307E-02   9   8   6   3
  0.2307500049084704E-02   9   8   6   4
 -0.1055703032500164E-02   9   8   6   5
 -0.4010640641911338E-02   9   8   6   6
 -0.5313546733537261E-02   9   8   7   7
  0.2641584626383421E-02   9   8   8   7
  0.4953936836680329E-03   9   8   8   8
 -0.1554140159123110E-01   9   8   9   7
  0.1274723663534402E-01   9   8   9   8
  0.5033076164864730E+00   9   9   1   1
  0.4475964545444840E-01   9   9   2   1
  0.4369150047402654E+00   9   9   2   2
 -0.2088222818917249E-01   9   9   3   1
 -0.7698290186635293E-01   9   9   3   2
  0.3560889430475290E+00   9   9   3   3
 -0.4821987317461585E-01   9   9   4   1
  0.4878752650846840E-01   9   9   4   2
  0.1023752016362184E-01   9   9   4   3
  0.3862651929281956E+00   9   9   4   4
  0.2261889289187573E-01   9   9   5   1
 -0.4180369785664032E-02   9   9   5   2
  0.7705023411311942E-02   9   9   5   3
  0.4425319971998320E-02   9   9   5   4
  0.4418753630736562E+00   9   9   5   5
  0.1061529068707567E-01   9   9   6   1
  0.1069500456578015E-01   9   9   6   2
 -0.4066272860257869E-01   9   9   6   3
 -0.1377133797301766E-01   9   9   6   4
 -0.5899230679837797E-02   9   9   6   5
  0.4335492205295577E+00   9   9   6   6
  0.4666464925742900E+00   9   9   7   7
 -0.8740259592333149E-01   9   9   8   7
  0.3781098383028838E+00   9   9   8   8
  0.1606774928736254E-01   9   9   9   7
 -0.8935710131271826E-02   9   9   9   8
  0.4853661132233936E+00   9   9   9   9
  0.5200372644104734E+00  10  10   1   1
  0.6033280944778110E-01  10  10   2   1
  0.4145919851977804E+00  10  10   2   2
 -0.2207537348444200E-01  10  10   3   1
 -0.8641395916521369E-01  10  10   3   2
  0.3537304416159788E+00  10  10   3   3
 -0.4668600962607317E-01  10  10   4   1
  0.3777662828037875E-01  10  10   4   2
  0.2402778824737917E-01  10  10   4   3
  0.3834387878459086E+00  10  10   4   4
 -0.2516284570632253E-01  10  10   5   1
  0.2742433538145301E-02  10  10   5   2
 -0.9831643184724294E-02  10  10   5   3
 -0.6217496002864985E-02  10  10   5   4
  0.4513448117500212E+00  10  10   5   5
  0.1201947647277213E-02  10  10   6   1
  0.2857992887631157E-01  10  10   6   2
 -0.4010362826054159E-01  10  10   6   3
 -0.1682915020044473E-02  10  10   6   4
  0.1008484522661585E-01  10  10   6   5
  0.4251940088237028E+00  10  10   6   6
  0.4434267840039711E+00  10  10   7   7
 -0.8891131500898269E-01  10  10   8   7
  0.3681683551129669E+00  10  10   8   8
  0.2204835388651519E-01  10  10   9   7
 -0.4714033529802958E-02  10  10   9   8
  0.4329551385948833E+00  10  10   9   9
  0.4827706564752707E+00  10  10  10  10
 -0.1288276045677900E+00  11  10   1   1
 -0.3439961891208099E-01  11  10   2   1
 -0.8197021831257960E-01  11  10   2   2
  0.2278439708608822E-01  11  10   3   1
  0.4295232686321660E-01  11  10   3   2
 -0.5135162015901282E-01  11  10   3   3
  0.3448561434534653E-01  11  10   4   1
 -0.1935590118497132E-01  11  10   4   2
  0.2734844042981854E-02  11  10   4   3
 -0.5438176998622859E-01  11  10   4   4
  0.4340872101370537E-02  11  10   5   1
  0.1608627098133651E-02  11  10   5   2
 -0.1316941057104748E-02  11  10   5   3
 -0.4969103211895950E-02  11  10   5   4
 -0.7501547639568037E-01  11  10   5   5
 -0.3011871137723138E-02  11  10   6   1
 -0.1338302513701811E-01  11  10   6   2
  0.1959840993275999E-01  11  10   6   3
  0.4604208081931904E-02  11  10   6   4
 -0.2369630120777773E-02  11  10   6   5
 -0.7855213367833715E-01  11  10   6   6
 -0.8891131500898204E-01  11  10   7   7
  0.4975618985345738E-01  11  10   8   7
 -0.6020649103888898E-01  11  10   8   8
 -0.6555604011408044E-02  11  10   9   7
  0.1594837643869193E-02  11  10   9   8
 -0.8201085348892803E-01  11  10   9   9
 -0.9560132750747792E-01  11  10  10  10
  0.6333864457665704E-01  11  10  11  10
  0.4184741368210075E+00  11  11   1   1
  0.4051441794829890E-01  11  11   2   1
  0.3500685858948916E+00  11  11   2   2
 -0.1622165967579881E-01  11  11   3   1
 -0.6122290307622272E-01  11  11   3   2
  0.3106427117516209E+00  11  11   3   3
 -0.3163704102866316E-01  11  11   4   1
  0.2477800264258190E-01  11  11   4   2
  0.1864324282579749E-01  11  11   4   3
  0.3342760688429728E+00  11  11   4   4
 -0.1479723044379280E-01  11  11   5   1
  0.2660135224826210E-02  11  11   5   2
 -0.6458178478124099E-02  11  11   5   3
 -0.5840083750158018E-02  11  11   5   4
  0.3682661156019778E+00  11  11   5   5
  0.2111094008984127E-02  11  11   6   1
  0.1776080637920888E-01  11  11   6   2
 -0.2435977691211086E-01  11  11   6   3
  0.1437504448416060E-02  11  11   6   4
  0.5243360683983934E-02  11  11   6   5
  0.3551661991810030E+00  11  11   6   6
  0.3681683551129659E+00  11  11   7   7
 -0.6020649103888920E-01  11  11   8   7
  0.3221025585904362E+00  11  11   8   8
  0.1241024771408822E-01  11  11   9   7
 -0.1030151733363405E-02  11  11   9   8
  0.3584277039539688E+00  11  11   9   9
  0.3944162815664358E+00  11  11  10  10
 -0.5890364292799455E-01  11  11  11  10
  0.3496801913138111E+00  11  11  11  11
  0.5551196197097594E-01  12  10   1   1
  0.4250137690636181E-01  12  10   2   1
 -0.1126323734140620E-01  12  10   2   2
 -0.1150263045289316E-01  12  10   3   1
 -0.1157191941123602E-01  12  10   3   2
  0.9242658593103338E-02  12  10   3   3
  0.5798219414908649E-02  12  10   4   1
 -0.1966604000505960E-01  12  10   4   2
  0.2804646568224935E-01  12  10   4   3
 -0.1395741113308953E-02  12  10   4   4
 -0.7286949119697744E-02  12  10   5   1
 -0.6696480722998086E-02  12  10   5   2
 -0.2319745856158690E-02  12  10   5   3
 -0.4851700181735241E-02  12  10   5   4
  0.2631859305203909E-01  12  10   5   5
  0.1798393919069847E-01  12  10   6   1
  0.2574655052491934E-01  12  10   6   2
 -0.5488815520639102E-02  12  10   6   3
  0.7553281380553729E-02  12  10   6   4
 -0.3422457399996676E-02  12  10   6   5
  0.2925282304396985E-02  12  10   6   6
  0.2204835388651518E-01  12  10   7   7
 -0.6555604011407892E-02  12  10   8   7
  0.1241024771408799E-01  12  10   8   8
  0.3676179366300365E-01  12  10   9   7
 -0.1112719133366953E-01  12  10   9   8
  0.1061639038424388E-01  12  10   9   9
  0.3005072793014484E-01  12  10  10  10
 -0.7020992871625215E-02  12  10  11  10
  0.1615882085067276E-01  12  10  11  11
  0.5517485494076473E-01  12  10  12  10
 -0.2049317428688325E-01  12  11   1   1
 -0.1577943008686434E-01  12  11   2   1
 -0.3157300061562804E-02  12  11   2   2
  0.1025369729613985E-01  12  11   3   1
 -0.3761550395016411E-04  12  11   3   2
 -0.4491989335451463E-02  12  11   3   3
  0.9550926250490727E-04  12  11   4   1
  0.1075462246607955E-01  12  11   4   2
 -0.5040345286842605E-02  12  11   4   3
  0.5413713952140812E-02  12  11   4   4
  0.1771535916733224E-02  12  11   5   1
  0.1588110928044966E-02  12  11   5   2
 -0.1378482504229239E-02  12  11   5   3
  0.3353715185535922E-03  12  11   5   4
 -0.6413648490103685E-02  12  11   5   5
 -0.9984665209398662E-02  12  11   6   1
 -0.8050474111631217E-02  12  11   6   2
  0.6387326791631856E-02  12  11   6   3
  0.2307500049083066E-02  12  11   6   4
  0.1055703032500136E-02  12  11   6   5
 -0.4010640641912042E-02  12  11   6   6
 -0.4714033529803169E-02  12  11   7   7
  0.1594837643869039E-02  12  11   8   7
 -0.1030151733363742E-02  12  11   8   8
 -0.1112719133366932E-01  12  11   9   7
  0.8104292194242907E-02  12  11   9   8
 -0.6043285986162500E-02  12  11   9   9
 -0.5313546733537256E-02  12  11  10  10
  0.2641584626383503E-02  12  11  11  10
  0.4953936836681080E-03  12  11  11  11
 -0.1554140159123095E-01  12  11  12  10
  0.1274723663534392E-01  12  11  12  11
  0.5033076164864727E+00  12  12   1   1
  0.4475964545444831E-01  12  12   2   1
  0.4369150047402652E+00  12  12   2   2
 -0.2088222818917249E-01  12  12   3   1
 -0.7698290186635287E-01  12  12   3   2
  0.3560889430475294E+00  12  12   3   3
 -0.4821987317461573E-01  12  12   4   1
  0.4878752650846807E-01  12  12   4   2
  0.1023752016362212E-01  12  12   4   3
  0.3862651929281951E+00  12  12   4   4
 -0.2261889289187571E-01  12  12   5   1
  0.4180369785664026E-02  12  12   5   2
 -0.7705023411311953E-02  12  12   5   3
 -0.4425319971998319E-02  12  12   5   4
  0.4418753630736560E+00  12  12   5   5
  0.1061529068707601E-01  12  12   6   1
  0.1069500456578015E-01  12  12   6   2
 -0.4066272860257797E-01  12  12   6   3
 -0.1377133797301811E-01  12  12   6   4
  0.5899230679837777E-02  12  12   6   5
  0.4335492205295556E+00  12  12   6   6
  0.4329551385948827E+00  12  12   7   7
 -0.8201085348892817E-01  12  12   8   7
  0.3584277039539688E+00  12  12   8   8
  0.1061639038424400E-01  12  12   9   7
 -0.6043285986162383E-02  12  12   9   8
  0.4439512480455174E+00  12  12   9   9
  0.4666464925742904E+00  12  12  10  10
 -0.8740259592333105E-01  12  12  11  10
  0.3781098383028831E+00  12  12  11  11
  0.1606774928736260E-01  12  12  12  10
 -0.8935710131271951E-02  12  12  12  11
  0.4853661132233933E+00  12  12  12  12
  0.4942436726004801E+00  13  13   1   1
  0.4764873518141757E-01  13  13   2   1
  0.3981669768972264E+00  13  13   2   2
 -0.9803600869765811E-02  13  13   3   1
 -0.7247491727510202E-01  13  13   3   2
  0.3441475806882390E+00  13  13   3   3
 -0.3307824315683372E-01  13  13   4   1
  0.3246566966781350E-01  13  13   4   2
  0.2776139747929118E-01  13  13   4   3
  0.3755329145144551E+00  13  13   4   4
  0.4831499649142290E-17  13  13   5   1
 -0.1306107707298657E-17  13  13   5   2
 -0.2911538388264080E-17  13  13   5   3
  0.7850701112579842E-17  13  13   5   4
  0.4433352587703317E+00  13  13   5   5
 -0.4436548203580415E-02  13  13   6   1
  0.2690656911704545E-01  13  13   6   2
 -0.3729230601064004E-01  13  13   6   3
 -0.4587300195956212E-03  13  13   6   4
  0.7704176195473682E-19  13  13   6   5
  0.4152503828074853E+00  13  13   6   6
  0.4513448117500205E+00  13  13   7   7
 -0.7501547639568062E-01  13  13   8   7
  0.3682661156019783E+00  13  13   8   8
  0.2631859305203904E-01  13  13   9   7
 -0.6413648490103396E-02  13  13   9   8
  0.4418753630736557E+00  13  13   9   9
  0.4513448117500209E+00  13  13  10  10
 -0.7501547639568046E-01  13  13  11  10
  0.3682661156019781E+00  13  13  11  11
  0.2631859305203901E-01  13  13  12  10
 -0.6413648490103382E-02  13  13  12  11
  0.4418753630736556E+00  13  13  12  12
  0.4625430151610469E+00  13  13  13  13
  0.4379239679437265E+00  14  14   1   1
  0.4376122365347408E-02  14  14   2   1
  0.4357007129323590E+00  14  14   2   2
 -0.8926955100084760E-02  14  14   3   1
 -0.6337406150491251E-01  14  14   3   2
  0.3429504105608072E+00  14  14   3   3
 -0.5148313203400845E-01  14  14   4   1
  0.6655520723077046E-01  14  14   4   2
 -0.1633605164465096E-01  14  14   4   3
  0.3816667778301665E+00  14  14   4   4
  0.6299874826080240E-17  14  14   5   1
 -0.7185533784180329E-17  14  14   5   2
  0.1836022299316742E-17  14  14   5   3
  0.2427901838898112E-17  14  14   5   4
  0.4040583041576888E+00  14  14   5   5
 -0.6941149284426795E-02  14  14   6   1
 -0.1931588692840019E-01  14  14   6   2
 -0.3164884509366714E-01  14  14   6   3
 -0.2227944366242873E-01  14  14   6   4
  0.4359692914752438E-17  14  14   6   5
  0.4227207751105077E+00  14  14   6   6
  0.4135600699475827E+00  14  14   7   7
 -0.7493289542902337E-01  14  14   8   7
  0.3484825888426656E+00  14  14   8   8
 -0.2645688328564401E-01  14  14   9   7
  0.6430275337564975E-02  14  14   9   8
  0.4325430734284806E+00  14  14   9   9
  0.4135600699475832E+00  14  14  10  10
 -0.7493289542902326E-01  14  14  11  10
  0.3484825888426656E+00  14  14  11  11
 -0.2645688328564408E-01  14  14  12  10
  0.6430275337564961E-02  14  14  12  11
  0.4325430734284805E+00  14  14  12  12
  0.4040583041576885E+00  14  14  13  13
  0.4446262123461828E+00  14  14  14  14
  0.8146278964040560E-01  15  14   1   1
  0.1578235371657690E-01  15  14   2   1
  0.4672821199015573E-01  15  14   2   2
 -0.2406967402851623E-02  15  14   3   1
 -0.3492510156410877E-01  15  14   3   2
  0.2722774666483646E-01  15  14   3   3
 -0.1587775170260307E-01  15  14   4   1
  0.1732639677592684E-01  15  14   4   2
  0.8573747899075668E-02  15  14   4   3
  0.4676194817505554E-01  15  14   4   4
  0.1928879973040424E-17  15  14   5   1
 -0.8535538467960901E-18  15  14   5   2
 -0.7792796810927145E-18  15  14   5   3
  0.1884971749242017E-17  15  14   5   4
  0.6303187689836649E-01  15  14   5   5
 -0.4420999353869651E-02  15  14   6   1
  0.1171306354315615E-01  15  14   6   2
 -0.7841261432535038E-02  15  14   6   3
  0.1788222076931911E-02  15  14   6   4
 -0.3024786858266805E-18  15  14   6   5
  0.5166671953646780E-01  15  14   6   6
  0.6833354072416536E-01  15  14   7   7
 -0.2841982937163583E-01  15  14   8   7
  0.4670480034902912E-01  15  14   8   8
  0.4380925559558286E-02  15  14   9   7
  0.3889203348378882E-02  15  14   9   8
  0.5900991194810094E-01  15  14   9   9
  0.6833354072416550E-01  15  14  10  10
 -0.2841982937163581E-01  15  14  11  10
  0.4670480034902903E-01  15  14  11  11
  0.4380925559558272E-02  15  14  12  10
  0.3889203348378893E-02  15  14  12  11
  0.5900991194810094E-01  15  14  12  12
  0.6303187689836671E-01  15  14  13  13
  0.5209124574593479E-01  15  14  14  14
  0.2936567083795382E-01  15  14  15  14
  0.2892667473030173E+00  15  15   1   1
  0.3675856613166439E-03  15  15   2   1
  0.3013539187039374E+00  15  15   2   2
 -0.1017831659860979E-01  15  15   3   1
 -0.1947723184444194E-02  15  15   3   2
  0.2793038274833586E+00  15  15   3   3
 -0.1759617616931436E-01  15  15   4   1
  0.1373784410049772E-01  15  15   4   2
 -0.1858572603841935E-01  15  15   4   3
  0.2669661691868583E+00  15  15   4   4
  0.2476281808037902E-17  15  15   5   1
 -0.1926971046453115E-17  15  15   5   2
  0.1599033283364214E-17  15  15   5   3
  0.9635703828488833E-18  15  15   5   4
  0.2747833661864052E+00  15  15   5   5
 -0.1474202027496041E-03  15  15   6   1
 -0.1127511161253671E-01  15  15   6   2
 -0.1454556685550676E-01  15  15   6   3
 -0.1212165469054521E-01  15  15   6   4
  0.2418359150084789E-17  15  15   6   5
  0.2899744692807473E+00  15  15   6   6
  0.2774449699768446E+00  15  15   7   7
 -0.2721399742682301E-01  15  15   8   7
  0.2524257764756298E+00  15  15   8   8
 -0.1033853733334607E-01  15  15   9   7
 -0.3314217759083950E-02  15  15   9   8
  0.2891788646359517E+00  15  15   9   9
  0.2774449699768448E+00  15  15  10  10
 -0.2721399742682293E-01  15  15  11  10
  0.2524257764756301E+00  15  15  11  11
 -0.1033853733334610E-01  15  15  12  10
 -0.3314217759083984E-02  15  15  12  11
  0.2891788646359517E+00  15  15  12  12
  0.2747833661864095E+00  15  15  13  13
  0.2969164477665491E+00  15  15  14  14
 -0.8775999699833226E-03  15  15  15  14
  0.2869854729514648E+00  15  15  15  15
  0.4359675805458006E-02  16  14   1   1
 -0.2373782454061345E-01  16  14   2   1
  0.6048503167239111E-01  16  14   2   2
  0.2621693127763938E-02  16  14   3   1
 -0.1019545045278755E-01  16  14   3   2
  0.1908368932483251E-01  16  14   3   3
 -0.1845304423300768E-01  16  14   4   1
  0.3985037008135413E-01  16  14   4   2
 -0.2689287658284099E-01  16  14   4   3
  0.3533881075382415E-01  16  14   4   4
  0.2595905743566453E-17  16  14   5   1
 -0.6018131514473736E-17  16  14   5   2
  0.3176760960568799E-17  16  14   5   3
 -0.3936132710245331E-17  16  14   5   4
  0.2941706287020464E-02  16  14   5   5
  0.2794430927167149E-02  16  14   6   1
 -0.3599388533482729E-01  16  14   6   2
  0.1461034186618005E-02  16  14   6   3
 -0.2013921495182185E-01  16  14   6   4
  0.3494487055606532E-17  16  14   6   5
  0.4123231531977595E-01  16  14   6   6
  0.1066263914214618E-01  16  14   7   7
 -0.1194751889382476E-01  16  14   8   7