 &FCI NORB= 28,NELEC= 18,MS2= 0,
  ORBSYM=1,1,1,1,1,1,1,2,2,2,3,3,3,4,5,5,5,5,5,5,5,6,6,6,7,7,7,8,
  ISYM=1,
  OCC=  3,  1,  1,  0,  2,  1,  1,  0,
  CLOSED=  3,  1,  1,  0,  2,  1,  1,  0,
  FOCK=    -26.432909628506,     -1.767866540653,     -0.744155520384,      1.575413022761,      1.821976823911,
       3.477224521410,      3.875583635877,     -0.806616860964,      1.309107035992,      3.670510107300,     -0.806616860964,      1.309107035992,      3.670510107300,      3.875583635877,    -26.432666406898,     -1.499511893353,      0.096219159114,      1.352192730101,      2.318961538794,      3.927893002173,      4.996587766157,     -0.662560381437,      1.496882017250,      4.161406234346,     -0.662560381437,      1.496882017250,      4.161406234346,      3.927893002173,
 /
  0.2865928212337442E+01   1   1   1   1
 -0.2601282974041677E+00   2   1   1   1
  0.4152732849101572E-01   2   1   2   1
  0.8345971564616166E+00   2   2   1   1
 -0.9118800149458220E-02   2   2   2   1
  0.6802788942398340E+00   2   2   2   2
  0.6231860448062166E-01   3   1   1   1
 -0.6502534859314344E-02   3   1   2   1
  0.1357619036661984E-01   3   1   2   2
  0.1983463683759720E-01   3   1   3   1
  0.2316505328769584E-01   3   2   1   1
  0.4737011587380912E-02   3   2   2   1
  0.7580661121345693E-01   3   2   2   2
  0.1990605799659106E-01   3   2   3   1
  0.1037886030048420E+00   3   2   3   2
  0.7990671359213936E+00   3   3   1   1
 -0.7825153704458087E-02   3   3   2   1
  0.6307937129700139E+00   3   3   2   2
 -0.6014369602246627E-03   3   3   3   1
  0.1901176948973361E-01   3   3   3   2
  0.6451718471198737E+00   3   3   3   3
 -0.1467189528761996E+00   4   1   1   1
  0.2001618808094509E-01   4   1   2   1
 -0.1529421712175512E-01   4   1   2   2
 -0.2276775698626676E-01   4   1   3   1
 -0.1719934192852556E-01   4   1   3   2
 -0.1524273343465853E-02   4   1   3   3
  0.3026534743881089E-01   4   1   4   1
  0.1198258091842766E+00   4   2   1   1
 -0.6303613701240603E-02   4   2   2   1
  0.4273910039781595E-01   4   2   2   2
 -0.6682492339914647E-02   4   2   3   1
 -0.1817513139561430E-01   4   2   3   2
  0.4879613888373997E-01   4   2   3   3
  0.4595245444335337E-02   4   2   4   1
  0.2340512842086281E-01   4   2   4   2
 -0.2689152385392249E+00   4   3   1   1
  0.9145159609572405E-02   4   3   2   1
 -0.1155616453326418E+00   4   3   2   2
  0.4178713527859327E-02   4   3   3   1
  0.6666301303810337E-03   4   3   3   2
 -0.1212267145261859E+00   4   3   3   3
 -0.1449683909557978E-02   4   3   4   1
 -0.3582244489841255E-01   4   3   4   2
  0.7988058147567967E-01   4   3   4   3
  0.6738772972721349E+00   4   4   1   1
 -0.1206539065252104E-01   4   4   2   1
  0.4844132215403110E+00   4   4   2   2
 -0.8889010692374792E-02   4   4   3   1
 -0.3730872653148194E-01   4   4   3   2
  0.5205206551375381E+00   4   4   3   3
  0.4826581744324265E-02   4   4   4   1
  0.3799648451128079E-01   4   4   4   2
 -0.7515070612513308E-01   4   4   4   3
  0.4855964221751796E+00   4   4   4   4
  0.2031757907603884E+00   5   1   1   1
 -0.3508339281095919E-01   5   1   2   1
 -0.2072374954495430E-03   5   1   2   2
 -0.7420038419513831E-02   5   1   3   1
 -0.1617319493138745E-01   5   1   3   2
  0.6991142484212952E-02   5   1   3   3
 -0.3414292739798673E-02   5   1   4   1
  0.9740644558109151E-02   5   1   4   2
 -0.1052499186256419E-01   5   1   4   3
  0.1594554460074218E-01   5   1   4   4
  0.3865956389104733E-01   5   1   5   1
 -0.2321813017010313E+00   5   2   1   1
  0.8224957599107080E-02   5   2   2   1
 -0.8980480983607736E-01   5   2   2   2
 -0.1091848877045544E-01   5   2   3   1
 -0.1472713626230801E-01   5   2   3   2
 -0.8008771832236083E-01   5   2   3   3
  0.1303155141501885E-01   5   2   4   1
 -0.1172646336870541E-01   5   2   4   2
  0.4160421898047364E-01   5   2   4   3
 -0.5298383638474405E-01   5   2   4   4
 -0.1615802793381721E-03   5   2   5   1
  0.6586915856541531E-01   5   2   5   2
 -0.1235232672796301E+00   5   3   1   1
  0.2380693557531628E-02   5   3   2   1
 -0.4716171931864481E-01   5   3   2   2
 -0.9001548090578255E-02   5   3   3   1
 -0.1389763447776575E-01   5   3   3   2
 -0.4327887016384742E-01   5   3   3   3
  0.9461546339667292E-02   5   3   4   1
 -0.1140276828726014E-03   5   3   4   2
  0.2207399189333234E-01   5   3   4   3
 -0.2766442452616974E-01   5   3   4   4
  0.3842913387874292E-02   5   3   5   1
  0.4252392441962195E-01   5   3   5   2
  0.3351435721934692E-01   5   3   5   3
  0.3536335988386929E-01   5   4   1   1
  0.1065695576704422E-03   5   4   2   1
  0.1852279727892914E-01   5   4   2   2
  0.4904955417060783E-02   5   4   3   1
  0.1962406769974199E-01   5   4   3   2
  0.1518363358450754E-01   5   4   3   3
 -0.4701571942544171E-02   5   4   4   1
 -0.2475382671902443E-02   5   4   4   2
 -0.7006503015488861E-02   5   4   4   3
  0.2006068701522081E-02   5   4   4   4
 -0.3212677374717195E-02   5   4   5   1
 -0.9296563716274561E-02   5   4   5   2
 -0.8681041450326041E-02   5   4   5   3
  0.8734577853362957E-02   5   4   5   4
  0.7926904676098465E+00   5   5   1   1
 -0.8629672534490804E-02   5   5   2   1
  0.6381827606405895E+00   5   5   2   2
  0.2296915194797563E-01   5   5   3   1
  0.1038877650453801E+00   5   5   3   2
  0.5741778130119737E+00   5   5   3   3
 -0.2434404919579389E-01   5   5   4   1
  0.2808588474860979E-01   5   5   4   2
 -0.9747342860424202E-01   5   5   4   3
  0.4357258184281826E+00   5   5   4   4
 -0.6617960212521951E-02   5   5   5   1
 -0.7441675935193537E-01   5   5   5   2
 -0.4347673339068653E-01   5   5   5   3
  0.2865588065521113E-01   5   5   5   4
  0.6472824836762604E+00   5   5   5   5
  0.1429002438128079E-01   6   1   1   1
 -0.2911105286847189E-02   6   1   2   1
 -0.8119187465404160E-03   6   1   2   2
 -0.3350916951082817E-02   6   1   3   1
 -0.3168031832168572E-02   6   1   3   2
  0.4812422416263095E-02   6   1   3   3
  0.2573222341103177E-02   6   1   4   1
  0.1392041166987542E-02   6   1   4   2
 -0.3780231000463553E-02   6   1   4   3
  0.4819190250064135E-02   6   1   4   4
  0.5073192009905450E-02   6   1   5   1
  0.7147172715921880E-03   6   1   5   2
 -0.2243115068312402E-03   6   1   5   3
  0.6019266768481910E-03   6   1   5   4
 -0.1735866241568236E-02   6   1   5   5
  0.1849113853799151E-02   6   1   6   1
  0.3088531778684958E-02   6   2   1   1
  0.1121917665410426E-02   6   2   2   1
  0.2603557498983609E-01   6   2   2   2
  0.1204014397833391E-02   6   2   3   1
  0.2632030907568337E-01   6   2   3   2
  0.4821328863593232E-01   6   2   3   3
 -0.7293483913336582E-03   6   2   4   1
 -0.5481497008106071E-02   6   2   4   2
 -0.9718413165556182E-02   6   2   4   3
  0.1263622448213720E-01   6   2   4   4
 -0.1625883713101379E-02   6   2   5   1
 -0.3042736516615286E-02   6   2   5   2
 -0.5254222542048000E-02   6   2   5   3
  0.1035099645521248E-01   6   2   5   4
  0.2421791662333425E-01   6   2   5   5
  0.3387902677025516E-02   6   2   6   1
  0.5474527163958760E-01   6   2   6   2
 -0.2543734414893932E-02   6   3   1   1
  0.4105479821330330E-02   6   3   2   1
  0.5670623496433499E-01   6   3   2   2
  0.1640980430233625E-01   6   3   3   1
  0.8829432494954575E-01   6   3   3   2
 -0.2173993033410683E-02   6   3   3   3
 -0.1408116897098627E-01   6   3   4   1
 -0.1666618802489954E-01   6   3   4   2
  0.7232342124920355E-02   6   3   4   3
 -0.4195857127338879E-01   6   3   4   4
 -0.1336352117982304E-01   6   3   5   1
 -0.8294473263397266E-02   6   3   5   2
 -0.8022237189418354E-02   6   3   5   3
  0.1141215081165706E-01   6   3   5   4
  0.7333213088332803E-01   6   3   5   5
 -0.4315959758014994E-02   6   3   6   1
  0.1226694711842610E-01   6   3   6   2
  0.9960441014102500E-01   6   3   6   3
  0.1454035327850816E-01   6   4   1   1
 -0.2376044708900433E-02   6   4   2   1
 -0.1126834112232315E-01   6   4   2   2
 -0.7656736352652820E-02   6   4   3   1
 -0.2194116949231593E-01   6   4   3   2
  0.7963197623496400E-02   6   4   3   3
  0.6651657970176871E-02   6   4   4   1
  0.9090304214746034E-02   6   4   4   2
 -0.1445343764404533E-01   6   4   4   3
  0.1329010563449719E-01   6   4   4   4
  0.6876840132056673E-02   6   4   5   1
  0.5970292132007071E-02   6   4   5   2
  0.3603958149398493E-02   6   4   5   3
 -0.2148045167623116E-02   6   4   5   4
 -0.1493265466113787E-01   6   4   5   5
  0.3093175881636059E-02   6   4   6   1
  0.2274181732291429E-02   6   4   6   2
 -0.2584159304789242E-01   6   4   6   3
  0.1554404552540365E-01   6   4   6   4
  0.3761581920837087E-01   6   5   1   1
 -0.2167340239944333E-02   6   5   2   1
  0.1051943560474105E-01   6   5   2   2
 -0.2487788028895692E-02   6   5   3   1
 -0.5584453353889790E-02   6   5   3   2
  0.8410785627113943E-02   6   5   3   3
  0.1824728222454168E-02   6   5   4   1
  0.7814849046224755E-02   6   5   4   2
 -0.5902774406115668E-02   6   5   4   3
  0.9438850160889221E-02   6   5   4   4
  0.3548311545038620E-02   6   5   5   1
 -0.4467531437350476E-03   6   5   5   2
  0.5331963946724801E-02   6   5   5   3
 -0.2450875842211838E-02   6   5   5   4
  0.5155943969941431E-02   6   5   5   5
 -0.6121478977435479E-03   6   5   6   1
 -0.6881510370627709E-02   6   5   6   2
 -0.4248435214534019E-02   6   5   6   3
  0.8208150569975210E-03   6   5   6   4
  0.9251135178199355E-02   6   5   6   5
  0.7408198854908086E+00   6   6   1   1
 -0.1336589444100311E-02   6   6   2   1
  0.6589192592540477E+00   6   6   2   2
  0.1532207135032355E-02   6   6   3   1
  0.4002349168918861E-01   6   6   3   2
  0.6534399813481329E+00   6   6   3   3
 -0.1365321542625059E-02   6   6   4   1
  0.4504902832196961E-01   6   6   4   2
 -0.1147717325521000E+00   6   6   4   3
  0.5058873869904407E+00   6   6   4   4
  0.1031537375099090E-03   6   6   5   1
 -0.7612785379382114E-01   6   6   5   2
 -0.3830770293807128E-01   6   6   5   3
  0.1265364153892939E-01   6   6   5   4
  0.5919827487135452E+00   6   6   5   5
  0.2497267554564978E-02   6   6   6   1
  0.5168946562206332E-01   6   6   6   2
  0.1862056485498993E-01   6   6   6   3
  0.1256366706167324E-03   6   6   6   4
  0.8215315229378531E-02   6   6   6   5
  0.6991397137743884E+00   6   6   6   6
 -0.1974601017411198E-16   7   1   1   1
  0.3537796697442051E-17   7   1   2   1
 -0.6586355786036550E-19   7   1   2   2
 -0.1462606325553329E-18   7   1   3   1
  0.7776215359853909E-18   7   1   3   2
 -0.7754745193105852E-19   7   1   3   3
  0.1255065151218374E-17   7   1   4   1
 -0.6458735718452712E-18   7   1   4   2
  0.4443280920509107E-18   7   1   4   3
 -0.7974743350053617E-18   7   1   4   4
 -0.3210716007228004E-17   7   1   5   1
  0.4262782189174321E-18   7   1   5   2
 -0.3156166676948652E-18   7   1   5   3
  0.3780283190928809E-18   7   1   5   4
 -0.5265195421867385E-19   7   1   5   5
 -0.3115327884905057E-18   7   1   6   1
  0.2298533186313709E-18   7   1   6   2
  0.5285141615483762E-18   7   1   6   3
 -0.1739326379184347E-18   7   1   6   4
 -0.4200958444921470E-18   7   1   6   5
  0.2286430098019252E-18   7   1   6   6
  0.9207118023204001E-03   7   1   7   1
  0.2653057830898743E-16   7   2   1   1
 -0.1179440224953093E-17   7   2   2   1
  0.9032514772798603E-17   7   2   2   2
  0.7012754785418232E-18   7   2   3   1
  0.2002146159398291E-18   7   2   3   2
  0.8788228779658654E-17   7   2   3   3
 -0.1114891416551209E-17   7   2   4   1
  0.3456521449048335E-18   7   2   4   2
 -0.4971495560741026E-17   7   2   4   3
  0.5889642605542130E-17   7   2   4   4
  0.7914419736508430E-18   7   2   5   1
 -0.2595162961666601E-17   7   2   5   2
 -0.4654220545984195E-17   7   2   5   3
  0.1528064577487776E-17   7   2   5   4
  0.6593056636047959E-17   7   2   5   5
  0.1345729144588842E-18   7   2   6   1
  0.2298224907277662E-18   7   2   6   2
 -0.7293060189555768E-18   7   2   6   3
  0.1371932487590151E-17   7   2   6   4
 -0.2529008252427272E-17   7   2   6   5
  0.6971631954285395E-17   7   2   6   6
  0.3639401453792676E-02   7   2   7   1
  0.4278337538299136E-01   7   2   7   2
  0.1160597184430615E-19   7   3   1   1
  0.1757830817723800E-18   7   3   2   1
 -0.9195329486322907E-18   7   3   2   2
  0.9004380560694654E-18   7   3   3   1
  0.3762039345822876E-18   7   3   3   2
 -0.1182201572516222E-17   7   3   3   3
 -0.8468692509045262E-18   7   3   4   1
 -0.1022322115188812E-17   7   3   4   2
  0.8375741331833697E-18   7   3   4   3
 -0.5756437232429582E-19   7   3   4   4
 -0.8344834253801074E-18   7   3   5   1
 -0.2850677626937459E-17   7   3   5   2
 -0.9745891798991345E-18   7   3   5   3
  0.1303996511351805E-19   7   3   5   4
 -0.5810347374739489E-18   7   3   5   5
 -0.1770709279230043E-18   7   3   6   1
 -0.5235764429783687E-18   7   3   6   2
  0.2823709535321162E-18   7   3   6   3
 -0.1100865981397818E-17   7   3   6   4
 -0.5117925188066008E-19   7   3   6   5
 -0.1356821441779729E-17   7   3   6   6
 -0.8750477890012148E-03   7   3   7   1
 -0.7636456071276155E-02   7   3   7   2
  0.1209427129491879E-01   7   3   7   3
 -0.4029683534071339E-17   7   4   1   1
 -0.5071279611450057E-18   7   4   2   1
 -0.7330976566150181E-17   7   4   2   2
 -0.9793821982448555E-18   7   4   3   1
 -0.4255432113706628E-17   7   4   3   2
 -0.3553443346401575E-17   7   4   3   3
  0.7294752781219488E-18   7   4   4   1
 -0.3770068023014239E-18   7   4   4   2
  0.1501024009478694E-17   7   4   4   3
  0.6996371009732714E-19   7   4   4   4
  0.1180978904515967E-17   7   4   5   1
  0.2054658549210232E-17   7   4   5   2
  0.5104308471160863E-18   7   4   5   3
 -0.1553874891631642E-18   7   4   5   4
 -0.8550574413881418E-17   7   4   5   5
  0.2910416055819544E-18   7   4   6   1
  0.5684656586882172E-18   7   4   6   2
 -0.3835913530048514E-17   7   4   6   3
  0.1330111203965284E-17   7   4   6   4
 -0.5279778152443409E-18   7   4   6   5
 -0.5404339627477760E-17   7   4   6   6
  0.1363116918454766E-02   7   4   7   1
  0.7747703134938670E-02   7   4   7   2
 -0.3712705563930496E-02   7   4   7   3
  0.5267416564017393E-02   7   4   7   4
 -0.5824508659517698E-17   7   5   1   1
  0.7192560794575533E-18   7   5   2   1
  0.1167103008374449E-18   7   5   2   2
 -0.1644099038158902E-17   7   5   3   1
 -0.6540590289472572E-17   7   5   3   2
  0.1520750070262963E-17   7   5   3   3
  0.1867873743805413E-17   7   5   4   1
  0.1831927488906533E-17   7   5   4   2
 -0.3242672635645173E-18   7   5   4   3
  0.4114223226455951E-17   7   5   4   4
  0.2221765524138841E-18   7   5   5   1
 -0.4282783439034889E-18   7   5   5   2
  0.7673872626382854E-18   7   5   5   3
 -0.2702174343866983E-17   7   5   5   4
 -0.4290787905038695E-17   7   5   5   5
 -0.5662698181202035E-19   7   5   6   1
 -0.3634291116012035E-17   7   5   6   2
 -0.3880057532444707E-17   7   5   6   3
  0.3873599911071283E-18   7   5   6   4
  0.1104714139601164E-17   7   5   6   5
  0.2822516421090870E-17   7   5   6   6
 -0.1502825342432103E-02   7   5   7   1
 -0.5199926684194287E-02   7   5   7   2
  0.5400100795680230E-03   7   5   7   3
 -0.3402057192040827E-02   7   5   7   4
  0.7450819472130339E-02   7   5   7   5
 -0.3106422759232937E-17   7   6   1   1
  0.2207116546567619E-18   7   6   2   1
 -0.1578528504028341E-17   7   6   2   2
 -0.1932810889415500E-18   7   6   3   1
 -0.1218825481086938E-17   7   6   3   2
 -0.1234365385738381E-17   7   6   3   3
  0.2938384639327693E-18   7   6   4   1
  0.1166545826269833E-17   7   6   4   2
 -0.2308637555820468E-18   7   6   4   3
  0.6731479766085348E-20   7   6   4   4
 -0.2343806205507375E-18   7   6   5   1
 -0.2544206729840433E-17   7   6   5   2
  0.4141273050848841E-18   7   6   5   3
 -0.7278396269774879E-18   7   6   5   4
 -0.9476526004499476E-18   7   6   5   5
 -0.1097908612495381E-19   7   6   6   1
 -0.1074773639885111E-17   7   6   6   2
 -0.7506200543131887E-18   7   6   6   3
 -0.7894519153753252E-18   7   6   6   4
  0.2141688306426523E-17   7   6   6   5
 -0.8528229278208948E-18   7   6   6   6
 -0.2484080087122713E-02   7   6   7   1
 -0.3126295855960615E-01   7   6   7   2
  0.6683285791544971E-02   7   6   7   3
 -0.5659311572024838E-02   7   6   7   4
  0.3609025329103078E-02   7   6   7   5
  0.2991836458304151E-01   7   6   7   6
  0.7240835767536766E+00   7   7   1   1
 -0.8396616791792287E-03   7   7   2   1
  0.6363508422177019E+00   7   7   2   2
  0.3383269759238629E-02   7   7   3   1
  0.2524022401137111E-01   7   7   3   2
  0.5883604556857190E+00   7   7   3   3
 -0.3017697725831908E-02   7   7   4   1
  0.4818907596759647E-01   7   7   4   2
 -0.9992227368684925E-01   7   7   4   3
  0.4792634898101620E+00   7   7   4   4
 -0.1572248775348645E-02   7   7   5   1
 -0.7158214781235728E-01   7   7   5   2
 -0.3263732409566934E-01   7   7   5   3
  0.2477612917938715E-02   7   7   5   4
  0.5778583348589279E+00   7   7   5   5
 -0.2563375963046120E-02   7   7   6   1
 -0.1940005326793090E-01   7   7   6   2
  0.2620709017819443E-01   7   7   6   3
 -0.7815266334167624E-02   7   7   6   4
  0.1502363682404288E-01   7   7   6   5
  0.6200441015863420E+00   7   7   6   6
  0.8242853550915608E-18   7   7   7   1
  0.1236047854068148E-16   7   7   7   2
 -0.2069038004886849E-17   7   7   7   3
 -0.5801337759233507E-17   7   7   7   4
  0.5791293040466886E-17   7   7   7   5
 -0.4004740909408791E-17   7   7   7   6
  0.6656426487348148E+00   7   7   7   7
  0.7934235284863022E+00   8   8   1   1
 -0.6955460866496491E-02   8   8   2   1
  0.6278659092234977E+00   8   8   2   2
  0.5822784131406781E-02   8   8   3   1
  0.3455122170575568E-01   8   8   3   2
  0.5870287433187381E+00   8   8   3   3
 -0.7269510542117524E-02   8   8   4   1
  0.4803612643909283E-01   8   8   4   2
 -0.1069046629028586E+00   8   8   4   3
  0.4786817318636202E+00   8   8   4   4
  0.2353153311519945E-02   8   8   5   1
 -0.7719633134369808E-01   8   8   5   2
 -0.3728830935266711E-01   8   8   5   3
  0.8300353327355431E-02   8   8   5   4
  0.5858602655462007E+00   8   8   5   5
 -0.1921038333424156E-02   8   8   6   1
 -0.5003584217334878E-02   8   8   6   2
  0.2662747989509640E-01   8   8   6   3
 -0.5404713403151696E-02   8   8   6   4
  0.1514142366011367E-01   8   8   6   5
  0.6051977918320859E+00   8   8   6   6
  0.3312138032707823E-02   8   8   7   1
  0.3011448922300016E-01   8   8   7   2
 -0.5713963461017860E-02   8   8   7   3
  0.5739062557173545E-02   8   8   7   4
 -0.3591687568747270E-02   8   8   7   5
 -0.2158280277219774E-01   8   8   7   6
  0.6168790036975879E+00   8   8   7   7
  0.6278223169750081E+00   8   8   8   8
 -0.2960171043235232E+00   9   8   1   1
  0.8929286452236659E-02   9   8   2   1
 -0.1191337927606589E+00   9   8   2   2
 -0.1507779859638657E-02   9   8   3   1
  0.6368503635686652E-02   9   8   3   2
 -0.1159209928678281E+00   9   8   3   3
  0.4054773394832123E-02   9   8   4   1
 -0.3056585774386755E-01   9   8   4   2
  0.6203090963549989E-01   9   8   4   3
 -0.8609671445460808E-01   9   8   4   4
 -0.6610244326802739E-02   9   8   5   1
  0.6173274402725805E-01   9   8   5   2
  0.3145263862733117E-01   9   8   5   3
 -0.3761046547811661E-02   9   8   5   4
 -0.8867518458762150E-01   9   8   5   5
  0.7244536798796472E-03   9   8   6   1
  0.5889029726337660E-02   9   8   6   2
  0.6614325199201751E-02   9   8   6   3
 -0.2128708583173835E-03   9   8   6   4
 -0.1132595952923630E-01   9   8   6   5
 -0.1107061226360573E+00   9   8   6   6
 -0.2387920902428959E-02   9   8   7   1
 -0.7761534932960775E-02   9   8   7   2
  0.3259473699623136E-02   9   8   7   3
 -0.5348368656896232E-02   9   8   7   4
  0.7454019215301731E-02   9   8   7   5
  0.5721508675015588E-02   9   8   7   6
 -0.1139460418160397E+00   9   8   7   7
 -0.1230106090714760E+00   9   8   8   8
  0.9328130248946767E-01   9   8   9   8
  0.7223113965751495E+00   9   9   1   1
 -0.9953679145425177E-02   9   9   2   1
  0.5440997322023992E+00   9   9   2   2
  0.4741260762488188E-02   9   9   3   1
  0.2723519222589764E-01   9   9   3   2
  0.5147790788940546E+00   9   9   3   3
 -0.7325328979190610E-02   9   9   4   1
  0.3858422379154308E-01   9   9   4   2
 -0.8591118925353558E-01   9   9   4   3
  0.4359551825974473E+00   9   9   4   4
  0.5794503589496625E-02   9   9   5   1
 -0.5525411459329077E-01   9   9   5   2
 -0.2626864723800183E-01   9   9   5   3
  0.8011852607961556E-02   9   9   5   4
  0.5284385097761753E+00   9   9   5   5
 -0.1229421690085843E-02   9   9   6   1
 -0.2625308446865277E-02   9   9   6   2
  0.1843500388416508E-01   9   9   6   3
 -0.1627479824478349E-02   9   9   6   4
  0.1224652755701115E-01   9   9   6   5
  0.5208776723906652E+00   9   9   6   6
  0.2746838068711967E-02   9   9   7   1
  0.1901882639585495E-01   9   9   7   2
 -0.3478053100805482E-02   9   9   7   3
  0.3610630083531023E-02   9   9   7   4
 -0.1222403548797819E-02   9   9   7   5
 -0.1289773216417427E-01   9   9   7   6
  0.5270100735211464E+00   9   9   7   7
  0.5475778718333060E+00   9   9   8   8
 -0.8862954077851265E-01   9   9   9   8
  0.5051524746759238E+00   9   9   9   9
  0.4141769725859949E-01  10   8   1   1
  0.2174376755687144E-02  10   8   2   1
  0.6470803396558070E-01  10   8   2   2
  0.1502886734516095E-01  10   8   3   1
  0.7664933052203078E-01  10   8   3   2
  0.1619255445392431E-01  10   8   3   3
 -0.1341173334822226E-01  10   8   4   1
 -0.9941136076680415E-02  10   8   4   2
 -0.2404015961884234E-02  10   8   4   3
 -0.2342487796279709E-01  10   8   4   4
 -0.1097211662380918E-01  10   8   5   1
 -0.1473398322090062E-01  10   8   5   2
 -0.1060490775784601E-01  10   8   5   3
  0.1393860179334582E-01  10   8   5   4
  0.8388712879840578E-01  10   8   5   5
 -0.2861991941857081E-02  10   8   6   1
  0.1095730406657364E-01  10   8   6   2
  0.5724001461345762E-01  10   8   6   3
 -0.1485782653823494E-01  10   8   6   4
 -0.8526993412326508E-03  10   8   6   5
  0.3353138087125813E-01  10   8   6   6
  0.9480925525153072E-04  10   8   7   1
  0.2480604298162180E-02  10   8   7   2
  0.9658191304030948E-02  10   8   7   3
 -0.1480870704286945E-02  10   8   7   4
 -0.1276573208904939E-02  10   8   7   5
 -0.9088111220382153E-03  10   8   7   6
  0.3078508147503691E-01  10   8   7   7
  0.3805190269774223E-01  10   8   8   8
 -0.1152077677895359E-02  10   8   9   8
  0.2833733665349490E-01  10   8   9   9
  0.7452870849371804E-01  10   8  10   8
  0.9992457414779157E-02  10   9   1   1
 -0.9894448694272486E-03  10   9   2   1
  0.4172137767972916E-02  10   9   2   2
 -0.7892719705089916E-02  10   9   3   1
 -0.1899019574965084E-01  10   9   3   2
  0.1853508880066274E-01  10   9   3   3
  0.7365484564315412E-02  10   9   4   1
  0.1057961885454894E-01  10   9   4   2
 -0.1178839313427259E-01  10   9   4   3
  0.1747531669318652E-01  10   9   4   4
  0.5859505249326174E-02  10   9   5   1
  0.8182120138547650E-02  10   9   5   2
  0.8861949132282308E-02  10   9   5   3
 -0.3348933195406053E-02  10   9   5   4
 -0.5155864100864296E-02  10   9   5   5
  0.1754789802024126E-02  10   9   6   1
  0.2166258023698206E-02  10   9   6   2
 -0.1404012989991589E-01  10   9   6   3
  0.6739106073247691E-02  10   9   6   4
  0.2484727331116749E-02  10   9   6   5
  0.1491467579327643E-01  10   9   6   6
  0.2659455149466554E-04  10   9   7   1
  0.5111792458861903E-03  10   9   7   2
 -0.2952422743782320E-02  10   9   7   3
  0.1923489192026101E-02  10   9   7   4
  0.1367601688079498E-02  10   9   7   5
  0.3184182314232344E-03  10   9   7   6
  0.1050723914887018E-01  10   9   7   7
  0.8871472085006488E-02  10   9   8   8
 -0.4181595574756325E-02  10   9   9   8
  0.6889528950769198E-02  10   9   9   9
 -0.1910806352527621E-01  10   9  10   8
  0.1365182862861868E-01  10   9  10   9
  0.7296633943225677E+00  10  10   1   1
 -0.6178364839877573E-03  10  10   2   1
  0.6508755245653208E+00  10  10   2   2
  0.4216431040632956E-02  10  10   3   1
  0.3985762175698238E-01  10  10   3   2
  0.6324127687155968E+00  10  10   3   3
 -0.3783714123268417E-02  10  10   4   1
  0.4303114636010585E-01  10  10   4   2
 -0.1065721789235217E+00  10  10   4   3
  0.4953298460242287E+00  10  10   4   4
 -0.2287232909993969E-02  10  10   5   1
 -0.7578309293075769E-01  10  10   5   2
 -0.3851570858950090E-01  10  10   5   3
  0.1184246652624529E-01  10  10   5   4
  0.5918194078971933E+00  10  10   5   5
  0.8517374521825957E-03  10  10   6   1
  0.3223466698583424E-01  10  10   6   2
  0.2207844244947094E-01  10  10   6   3
 -0.2650470245223323E-02  10  10   6   4
  0.9198807689340768E-02  10  10   6   5
  0.6502651615835799E+00  10  10   6   6
  0.2040377488697784E-02  10  10   7   1
  0.2688521716135064E-01  10  10   7   2
 -0.5618853205556349E-02  10  10   7   3
  0.4192897957943909E-02  10  10   7   4
 -0.2718590074808133E-02  10  10   7   5
 -0.1244309876594683E-01  10  10   7   6
  0.6201279740331542E+00  10  10   7   7
  0.6236540700625284E+00  10  10   8   8
 -0.1131039599109805E+00  10  10   9   8
  0.5315739308876801E+00  10  10   9   9
  0.3578879632824002E-01  10  10  10   8
  0.1408962939131753E-01  10  10  10   9
  0.6796084139821196E+00  10  10  10  10
  0.7934235284863046E+00  11  11   1   1
 -0.6955460866496570E-02  11  11   2   1
  0.6278659092234987E+00  11  11   2   2
  0.5822784131406796E-02  11  11   3   1
  0.3455122170575562E-01  11  11   3   2
  0.5870287433187390E+00  11  11   3   3
 -0.7269510542117608E-02  11  11   4   1
  0.4803612643909327E-01  11  11   4   2
 -0.1069046629028592E+00  11  11   4   3
  0.4786817318636204E+00  11  11   4   4
  0.2353153311520056E-02  11  11   5   1
 -0.7719633134369885E-01  11  11   5   2
 -0.3728830935266715E-01  11  11   5   3
  0.8300353327355792E-02  11  11   5   4
  0.5858602655462006E+00  11  11   5   5
 -0.1921038333424164E-02  11  11   6   1
 -0.5003584217334926E-02  11  11   6   2
  0.2662747989509634E-01  11  11   6   3
 -0.5404713403151760E-02  11  11   6   4
  0.1514142366011376E-01  11  11   6   5
  0.6051977918320869E+00  11  11   6   6
 -0.3312138032707844E-02  11  11   7   1
 -0.3011448922300021E-01  11  11   7   2
  0.5713963461017884E-02  11  11   7   3
 -0.5739062557173603E-02  11  11   7   4
  0.3591687568747323E-02  11  11   7   5
  0.2158280277219779E-01  11  11   7   6
  0.6168790036975889E+00  11  11   7   7
  0.5818466531742256E+00  11  11   8   8
 -0.1114825142596513E+00  11  11   9   8
  0.5130276847641111E+00  11  11   9   9
  0.3539691440859588E-01  11  11  10   8
  0.8097097248570162E-02  11  11  10   9
  0.5864963900073665E+00  11  11  10  10
  0.6278223169750103E+00  11  11  11  11
 -0.2960171043235231E+00  12  11   1   1
  0.8929286452236673E-02  12  11   2   1
 -0.1191337927606588E+00  12  11   2   2
 -0.1507779859638657E-02  12  11   3   1
  0.6368503635686631E-02  12  11   3   2
 -0.1159209928678280E+00  12  11   3   3
  0.4054773394832172E-02  12  11   4   1
 -0.3056585774386732E-01  12  11   4   2
  0.6203090963550009E-01  12  11   4   3
 -0.8609671445460838E-01  12  11   4   4
 -0.6610244326802822E-02  12  11   5   1
  0.6173274402725795E-01  12  11   5   2
  0.3145263862733131E-01  12  11   5   3
 -0.3761046547812556E-02  12  11   5   4
 -0.8867518458762154E-01  12  11   5   5
  0.7244536798796443E-03  12  11   6   1
  0.5889029726337661E-02  12  11   6   2
  0.6614325199201783E-02  12  11   6   3
 -0.2128708583175299E-03  12  11   6   4
 -0.1132595952923633E-01  12  11   6   5
 -0.1107061226360573E+00  12  11   6   6
  0.2387920902428957E-02  12  11   7   1
  0.7761534932960714E-02  12  11   7   2
 -0.3259473699623122E-02  12  11   7   3
  0.5348368656896221E-02  12  11   7   4
 -0.7454019215301714E-02  12  11   7   5
 -0.5721508675015555E-02  12  11   7   6
 -0.1139460418160395E+00  12  11   7   7
 -0.1114825142596503E+00  12  11   8   8
  0.7195167262827205E-01  12  11   9   8
 -0.8569946261549503E-01  12  11   9   9
 -0.2260977758990037E-02  12  11  10   8
 -0.3640901414331845E-02  12  11  10   9
 -0.1049021569458166E+00  12  11  10  10
 -0.1230106090714768E+00  12  11  11  11
  0.9328130248946770E-01  12  11  12  11
  0.7223113965751473E+00  12  12   1   1
 -0.9953679145425103E-02  12  12   2   1
  0.5440997322023980E+00  12  12   2   2
  0.4741260762488183E-02  12  12   3   1
  0.2723519222589772E-01  12  12   3   2
  0.5147790788940537E+00  12  12   3   3
 -0.7325328979190471E-02  12  12   4   1
  0.3858422379154225E-01  12  12   4   2
 -0.8591118925353519E-01  12  12   4   3
  0.4359551825974443E+00  12  12   4   4
  0.5794503589496375E-02  12  12   5   1
 -0.5525411459328999E-01  12  12   5   2
 -0.2626864723800136E-01  12  12   5   3
  0.8011852607962999E-02  12  12   5   4
  0.5284385097761705E+00  12  12   5   5
 -0.1229421690085837E-02  12  12   6   1
 -0.2625308446865246E-02  12  12   6   2
  0.1843500388416512E-01  12  12   6   3
 -0.1627479824478426E-02  12  12   6   4
  0.1224652755701093E-01  12  12   6   5
  0.5208776723906642E+00  12  12   6   6
 -0.2746838068711948E-02  12  12   7   1
 -0.1901882639585487E-01  12  12   7   2
  0.3478053100805449E-02  12  12   7   3
 -0.3610630083530980E-02  12  12   7   4
  0.1222403548797739E-02  12  12   7   5
  0.1289773216417422E-01  12  12   7   6
  0.5270100735211455E+00  12  12   7   7
  0.5130276847641089E+00  12  12   8   8
 -0.8569946261549405E-01  12  12   9   8
  0.4683604640469323E+00  12  12   9   9
  0.2715000359104719E-01  12  12  10   8
  0.6604268682973022E-02  12  12  10   9
  0.5089796382754624E+00  12  12  10  10
  0.5475778718333061E+00  12  12  11  11
 -0.8862954077851243E-01  12  12  12  11
  0.5051524746759225E+00  12  12  12  12
  0.4141769725859927E-01  13  11   1   1
  0.2174376755687153E-02  13  11   2   1
  0.6470803396558063E-01  13  11   2   2
  0.1502886734516098E-01  13  11   3   1
  0.7664933052203088E-01  13  11   3   2
  0.1619255445392419E-01  13  11   3   3
 -0.1341173334822229E-01  13  11   4   1
 -0.9941136076680415E-02  13  11   4   2
 -0.2404015961884193E-02  13  11   4   3