 &FCI NORB= 26,NELEC= 10,MS2= 0,
  ORBSYM=1,1,1,1,1,1,2,2,2,3,3,3,4,5,5,5,5,5,5,6,6,6,7,7,7,8,
  ISYM=1,
  OCC=  2,  1,  1,  0,  1,  0,  0,  0,
  CLOSED=  2,  1,  1,  0,  1,  0,  0,  0,
  FOCK=    -15.685375186468,    -15.681904314304,     -1.473677719257,     -0.626514696817,      0.818845122830,
       0.992644650647,      1.756303191997,      2.878233524622,     -0.609584073489,      0.871259507607,      1.885485520962,     -0.609584073489,      0.871259507607,      1.885485520962,      1.756303191997,     -0.773009134401,      0.595682758506,      1.149561458619,      1.646710833421,      2.301292053487,      3.291448514212,      0.177436788812,      1.051816007620,      3.000243191739,      0.177436788812,      1.051816007620,
 /
  0.8209248115411705E+00   1   1   1   1
  0.1433629172093541E+00   2   1   1   1
  0.6649772065228379E-01   2   1   2   1
  0.5681969710758483E+00   2   2   1   1
  0.3313091869728964E-01   2   2   2   1
  0.5627641875806366E+00   2   2   2   2
 -0.8988927901813554E-01   3   1   1   1
 -0.4067574891588120E-01   3   1   2   1
 -0.4554822770117693E-01   3   1   2   2
  0.3941375460547861E-01   3   1   3   1
 -0.1303461822639647E+00   3   2   1   1
 -0.3926618559588372E-01   3   2   2   1
 -0.6246046297439661E-01   3   2   2   2
  0.2355128095923945E-01   3   2   3   1
  0.4661756342870235E-01   3   2   3   2
  0.4687170041249781E+00   3   3   1   1
  0.3777177745871956E-01   3   3   2   1
  0.4117927904058725E+00   3   3   2   2
 -0.2531825169186941E-01   3   3   3   1
 -0.3665653009176764E-01   3   3   3   2
  0.3712035322337068E+00   3   3   3   3
 -0.8271909651965394E-01   4   1   1   1
 -0.2038724324807011E-01   4   1   2   1
 -0.6041810114148734E-01   4   1   2   2
  0.2332540433562795E-01   4   1   3   1
  0.2202429059380238E-01   4   1   3   2
 -0.2515977565926520E-01   4   1   3   3
  0.2369356868379861E-01   4   1   4   1
  0.5338533244315357E-01   4   2   1   1
 -0.1064131430510654E-01   4   2   2   1
  0.9437985158340483E-01   4   2   2   2
 -0.2663541451074176E-02   4   2   3   1
 -0.1929783610298718E-01   4   2   3   2
  0.2577446035254447E-01   4   2   3   3
 -0.2064712690993455E-01   4   2   4   1
  0.5572483255450134E-01   4   2   4   2
  0.6055647153058159E-01   4   3   1   1
  0.2142038428216913E-01   4   3   2   1
 -0.1435163338830729E-02   4   3   2   2
  0.2093085728743588E-02   4   3   3   1
 -0.2134939374679592E-01   4   3   3   2
  0.1661624765630199E-01   4   3   3   3
  0.3180988695089190E-02   4   3   4   1
 -0.9384294246770744E-02   4   3   4   2
  0.3451644951012778E-01   4   3   4   3
  0.4709580430230640E+00   4   4   1   1
  0.1489500576033493E-01   4   4   2   1
  0.4588679876410944E+00   4   4   2   2
 -0.1522198294500060E-01   4   4   3   1
 -0.4568919431229761E-01   4   4   3   2
  0.3702299077660773E+00   4   4   3   3
 -0.3343945044851038E-01   4   4   4   1
  0.6363733392498983E-01   4   4   4   2
  0.1085051256442560E-01   4   4   4   3
  0.4088977818844812E+00   4   4   4   4
 -0.1505074024875173E-16   5   1   1   1
 -0.5483772287836191E-17   5   1   2   1
 -0.9197151668854759E-17   5   1   2   2
  0.3973647939688577E-17   5   1   3   1
  0.4336571248245605E-17   5   1   3   2
 -0.5619377897104188E-17   5   1   3   3
 -0.3733044724099376E-18   5   1   4   1
 -0.1225054454135650E-17   5   1   4   2
 -0.1971581839534481E-17   5   1   4   3
 -0.5762942735564599E-17   5   1   4   4
  0.3832051512199299E-01   5   1   5   1
 -0.1746584209687011E-17   5   2   1   1
 -0.4072405631205307E-17   5   2   2   1
  0.8923878156716199E-17   5   2   2   2
  0.1467682894072087E-17   5   2   3   1
  0.4045181484096749E-19   5   2   3   2
  0.1429855423392540E-17   5   2   3   3
 -0.4096910610415734E-18   5   2   4   1
  0.5108091927158369E-17   5   2   4   2
 -0.2045082071754801E-17   5   2   4   3
  0.5924133725526324E-17   5   2   4   4
 -0.7514365611647126E-02   5   2   5   1
  0.1204806084197485E-01   5   2   5   2
  0.5338140233009013E-17   5   3   1   1
  0.2964817284296693E-17   5   3   2   1
 -0.8927354860357457E-18   5   3   2   2
 -0.1331473574298032E-17   5   3   3   1
 -0.1611106922875211E-17   5   3   3   2
  0.8176518189711196E-18   5   3   3   3
 -0.1490006776193688E-17   5   3   4   1
 -0.1183271605039680E-17   5   3   4   2
  0.1482730886852455E-17   5   3   4   3
 -0.1628982426278942E-17   5   3   4   4
  0.1564146188528781E-01   5   3   5   1
 -0.4579004652545934E-02   5   3   5   2
  0.1155061802411804E-01   5   3   5   3
 -0.1217917293086131E-16   5   4   1   1
 -0.2718143908556247E-17   5   4   2   1
 -0.2169633875948104E-17   5   4   2   2
 -0.1988136135355605E-18   5   4   3   1
  0.2045290671054920E-17   5   4   3   2
 -0.4106789811745267E-17   5   4   3   3
 -0.1813505553145707E-18   5   4   4   1
  0.1735890233026692E-17   5   4   4   2
 -0.3898431349220925E-17   5   4   4   3
 -0.4119122787700323E-17   5   4   4   4
  0.6053786562019430E-02   5   4   5   1
 -0.6071213555593910E-03   5   4   5   2
  0.6813077090032875E-02   5   4   5   3
  0.8954150922504893E-02   5   4   5   4
  0.6014619090636886E+00   5   5   1   1
  0.4613793866235877E-01   5   5   2   1
  0.4880972281802475E+00   5   5   2   2
 -0.1753501867133955E-01   5   5   3   1
 -0.7053062039843486E-01   5   5   3   2
  0.4096270938000808E+00   5   5   3   3
 -0.3884472350540213E-01   5   5   4   1
  0.5060814414139858E-01   5   5   4   2
  0.4287786439974539E-01   5   5   4   3
  0.4349509382949405E+00   5   5   4   4
 -0.2232350408857680E-17   5   5   5   1
  0.9416722014996100E-18   5   5   5   2
  0.3912013974360312E-17   5   5   5   3
 -0.9656737698615927E-17   5   5   5   4
  0.5549932733149202E+00   5   5   5   5
  0.5312929724667189E-01   6   1   1   1
  0.3643029591636435E-01   6   1   2   1
  0.1136784429225110E-01   6   1   2   2
 -0.2400952700927970E-01   6   1   3   1
 -0.1266678179288440E-01   6   1   3   2
  0.1519071319885678E-01   6   1   3   3
 -0.5854578487293972E-02   6   1   4   1
 -0.9827881705474835E-02   6   1   4   2
  0.9332923035453692E-02   6   1   4   3
 -0.2375230032584875E-02   6   1   4   4
 -0.1928019590791830E-17   6   1   5   1
 -0.2317397060311074E-17   6   1   5   2
  0.2633138418087900E-17   6   1   5   3
  0.8235930370993459E-18   6   1   5   4
 -0.2577293152956020E-02   6   1   5   5
  0.3871879461983627E-01   6   1   6   1
  0.7483035068833799E-01   6   2   1   1
  0.3743986535309637E-01   6   2   2   1
 -0.2050703304844463E-01   6   2   2   2
 -0.1416208642263927E-01   6   2   3   1
 -0.2529381140852009E-01   6   2   3   2
  0.9587463104242955E-02   6   2   3   3
 -0.5461357888619060E-02   6   2   4   1
 -0.2540688948074572E-01   6   2   4   2
  0.2214929408551044E-01   6   2   4   3
 -0.8774088936933948E-02   6   2   4   4
 -0.2000733110100004E-17   6   2   5   1
 -0.5267709203267703E-17   6   2   5   2
  0.1793521088671275E-17   6   2   5   3
 -0.4646448919411316E-17   6   2   5   4
  0.3444407428575121E-01   6   2   5   5
  0.1122087349927612E-01   6   2   6   1
  0.5502585680995478E-01   6   2   6   2
 -0.6779700813374344E-01   6   3   1   1
 -0.1718517868065315E-01   6   3   2   1
 -0.4821224009660654E-01   6   3   2   2
  0.1778252181997213E-01   6   3   3   1
  0.1054339776435823E-01   6   3   3   2
 -0.2636947637106823E-01   6   3   3   3
  0.1343268280193188E-01   6   3   4   1
 -0.5378561365793552E-02   6   3   4   2
 -0.7548189966815472E-04   6   3   4   3
 -0.2346704679147751E-01   6   3   4   4
  0.3659983178119717E-17   6   3   5   1
 -0.4448165403034334E-18   6   3   5   2
  0.3059066846231203E-18   6   3   5   3
  0.1688290714471847E-17   6   3   5   4
 -0.3875644316684893E-01   6   3   5   5
 -0.1083014153439468E-01   6   3   6   1
 -0.5604212974603813E-02   6   3   6   2
  0.1843204879818302E-01   6   3   6   3
 -0.7907122771664348E-03   6   4   1   1
  0.1396866517431986E-02   6   4   2   1
 -0.2937211394663614E-01   6   4   2   2
  0.7669472149470072E-02   6   4   3   1
 -0.1119618556497730E-02   6   4   3   2
 -0.3923468740179640E-02   6   4   3   3
  0.5220656133076995E-02   6   4   4   1
 -0.1413418935848372E-01   6   4   4   2
  0.1193394119559412E-01   6   4   4   3
 -0.1091638978985949E-01   6   4   4   4
  0.2961685112808242E-17   6   4   5   1
 -0.3327798876283650E-17   6   4   5   2
  0.1805458723511527E-17   6   4   5   3
 -0.1671906149489941E-17   6   4   5   4
  0.5034724790014498E-02   6   4   5   5
 -0.7540604989938643E-02   6   4   6   1
  0.1751507144950723E-01   6   4   6   2
  0.5557481427621755E-02   6   4   6   3
  0.1674837231732748E-01   6   4   6   4
 -0.2480805632146307E-17   6   5   1   1
 -0.5896758814467447E-18   6   5   2   1
 -0.6360578433221667E-17   6   5   2   2
  0.2797264875732620E-17   6   5   3   1
 -0.2261102477947857E-18   6   5   3   2
 -0.1053114718479070E-17   6   5   3   3
  0.3218256173880377E-17   6   5   4   1
 -0.3558748261724868E-17   6   5   4   2
  0.2785598340878457E-17   6   5   4   3
 -0.2308446718518115E-17   6   5   4   4
 -0.1462120403508290E-01   6   5   5   1
  0.1009203561747298E-01   6   5   5   2
 -0.6781030144727087E-02   6   5   5   3
  0.1272919514727334E-03   6   5   5   4
 -0.5443192654149172E-18   6   5   5   5
 -0.2351680730868031E-17   6   5   6   1
  0.3193576016739130E-17   6   5   6   2
  0.8996712238411772E-18   6   5   6   3
  0.9109739469332859E-18   6   5   6   4
  0.1712993532078414E-01   6   5   6   5
  0.5876335807258256E+00   6   6   1   1
  0.4493897093881353E-01   6   6   2   1
  0.5308273606142735E+00   6   6   2   2
 -0.3972379580629820E-01   6   6   3   1
 -0.6414412407566666E-01   6   6   3   2
  0.4120995353624957E+00   6   6   3   3
 -0.5388281970275155E-01   6   6   4   1
  0.7289354554009941E-01   6   6   4   2
  0.1950612635643656E-01   6   6   4   3
  0.4432119421122208E+00   6   6   4   4
 -0.9312882442986898E-17   6   6   5   1
  0.6456954518448998E-17   6   6   5   2
  0.5378324197744181E-18   6   6   5   3
 -0.5466153349331041E-17   6   6   5   4
  0.5046592741385145E+00   6   6   5   5
  0.1367518369916454E-01   6   6   6   1
 -0.2002358731644283E-02   6   6   6   2
 -0.5064276394737482E-01   6   6   6   3
 -0.1756718834982496E-01   6   6   6   4
 -0.3588060643461710E-17   6   6   6   5
  0.5330511498144557E+00   6   6   6   6
  0.6340790268913991E+00   7   7   1   1
  0.6215348342510246E-01   7   7   2   1
  0.5045236472909471E+00   7   7   2   2
 -0.3349897789797324E-01   7   7   3   1
 -0.8316635966541487E-01   7   7   3   2
  0.4163117355465584E+00   7   7   3   3
 -0.5127578929781074E-01   7   7   4   1
  0.5881691591128746E-01   7   7   4   2
  0.4120184614504829E-01   7   7   4   3
  0.4434743653109163E+00   7   7   4   4
  0.2891801078521103E-01   7   7   5   1
 -0.7766376323790832E-02   7   7   5   2
  0.1233708025720237E-01   7   7   5   3
  0.4350488321168671E-02   7   7   5   4
  0.5405716810888593E+00   7   7   5   5
  0.4525009485998432E-02   7   7   6   1
  0.3546945071904939E-01   7   7   6   2
 -0.4033973201761393E-01   7   7   6   3
  0.4241630354547055E-02   7   7   6   4
 -0.1250280616357077E-01   7   7   6   5
  0.5149787269999440E+00   7   7   6   6
  0.5764829247952733E+00   7   7   7   7
 -0.1605417954872832E+00   8   7   1   1
 -0.3684967222247476E-01   8   7   2   1
 -0.1022962081957842E+00   8   7   2   2
  0.3217910817049999E-01   8   7   3   1
  0.3977750144879373E-01   8   7   3   2
 -0.5215590066076989E-01   8   7   3   3
  0.3673908762791153E-01   8   7   4   1
 -0.3308326845996271E-01   8   7   4   2
 -0.1300481879968354E-02   8   7   4   3
 -0.6377315559285221E-01   8   7   4   4
 -0.5163331575454674E-02   8   7   5   1
 -0.1015417138525413E-02   8   7   5   2
  0.2055473659100780E-02   8   7   5   3
  0.5874466687324094E-02   8   7   5   4
 -0.9093380270587086E-01   8   7   5   5
 -0.3618772925027297E-02   8   7   6   1
 -0.1489853137244951E-01   8   7   6   2
  0.2001673022995414E-01   8   7   6   3
  0.2687285548706772E-02   8   7   6   4
  0.3022481425738202E-02   8   7   6   5
 -0.9811185228607626E-01   8   7   6   6
 -0.1141800440547977E+00   8   7   7   7
  0.7642403309781923E-01   8   7   8   7
  0.5102348756346805E+00   8   8   1   1
  0.4173662691308676E-01   8   8   2   1
  0.4278346002298233E+00   8   8   2   2
 -0.2461730506564841E-01   8   8   3   1
 -0.5996580083860953E-01   8   8   3   2
  0.3682203091421480E+00   8   8   3   3
 -0.3498318728385297E-01   8   8   4   1
  0.4066293209063010E-01   8   8   4   2
  0.3101940696127681E-01   8   8   4   3
  0.3908713370478251E+00   8   8   4   4
  0.1685724701068030E-01   8   8   5   1
 -0.5875388863816999E-02   8   8   5   2
  0.8173709325588823E-02   8   8   5   3
  0.4819423379326743E-02   8   8   5   4
  0.4426688139442889E+00   8   8   5   5
  0.3119755891738629E-02   8   8   6   1
  0.2094468303376239E-01   8   8   6   2
 -0.2372716240614894E-01   8   8   6   3
  0.5186700707016323E-02   8   8   6   4
 -0.6817890060496814E-02   8   8   6   5
  0.4311313755737832E+00   8   8   6   6
  0.4734596193759217E+00   8   8   7   7
 -0.7183846160011897E-01   8   8   8   7
  0.4210513167132537E+00   8   8   8   8
  0.7950045438997889E-01   9   7   1   1
  0.4402335548510533E-01   9   7   2   1
 -0.2022535880210047E-01   9   7   2   2
 -0.9098013316279505E-02   9   7   3   1
 -0.1796484635287626E-01   9   7   3   2
  0.1766194314546958E-01   9   7   3   3
  0.2481199592647157E-02   9   7   4   1
 -0.2461264228872884E-01   9   7   4   2
  0.2904193121484501E-01   9   7   4   3
 -0.8312610372505821E-02   9   7   4   4
  0.9072910584449090E-02   9   7   5   1
  0.7098032351367370E-02   9   7   5   2
  0.4080872070831814E-02   9   7   5   3
  0.4679975347548142E-02   9   7   5   4
  0.3033920484057821E-01   9   7   5   5
  0.2544447163591756E-01   9   7   6   1
  0.3051048606488822E-01   9   7   6   2
 -0.2684568766575758E-02   9   7   6   3
  0.9182686285352397E-02   9   7   6   4
  0.4016679399043018E-02   9   7   6   5
  0.5547076446381026E-02   9   7   6   6
  0.3708959787813268E-01   9   7   7   7
 -0.7780963134438877E-02   9   7   8   7
  0.1867612964323106E-01   9   7   8   8
  0.6648678881608225E-01   9   7   9   7
 -0.2640816833962251E-01   9   8   1   1
 -0.1720655702498661E-01   9   8   2   1
  0.3589832927902421E-02   9   8   2   2
  0.9785406783472681E-02   9   8   3   1
  0.3351499975167843E-03   9   8   3   2
 -0.5258032307448057E-02   9   8   3   3
  0.3437402027349698E-03   9   8   4   1
  0.1466338267475495E-01   9   8   4   2
 -0.3382055532484341E-02   9   8   4   3
  0.8401721363382172E-02   9   8   4   4
 -0.2127315961654098E-02   9   8   5   1
 -0.1928312528300647E-02   9   8   5   2
  0.1291087884646967E-02   9   8   5   3
 -0.7260275755554144E-03   9   8   5   4
 -0.5387484025196815E-02   9   8   5   5
 -0.1330301579583741E-01   9   8   6   1
 -0.9829065796172397E-02   9   8   6   2
  0.6498098711151981E-02   9   8   6   3
  0.1359251450399763E-02   9   8   6   4
 -0.1357668806025961E-02   9   8   6   5
 -0.2807979611965433E-02   9   8   6   6
 -0.4052927147029755E-02   9   8   7   7
  0.1235827316406950E-02   9   8   8   7
  0.2470897549971202E-02   9   8   8   8
 -0.1943588320766339E-01   9   8   9   7
  0.1524128292651585E-01   9   8   9   8
  0.6157014138242560E+00   9   9   1   1
  0.4989973550132923E-01   9   9   2   1
  0.5360429473882269E+00   9   9   2   2
 -0.3462299893891896E-01   9   9   3   1
 -0.6915005994946272E-01   9   9   3   2
  0.4185164248858222E+00   9   9   3   3
 -0.5180215994848403E-01   9   9   4   1
  0.7167640827282284E-01   9   9   4   2
  0.2574449586994343E-01   9   9   4   3
  0.4517684956966481E+00   9   9   4   4
  0.2580477127053761E-01   9   9   5   1
 -0.8980647890694993E-02   9   9   5   2
  0.9140175964450234E-02   9   9   5   3
  0.2631683451910655E-02   9   9   5   4
  0.5317402792139253E+00   9   9   5   5
  0.1550982409634971E-01   9   9   6   1
  0.1311480037680518E-01   9   9   6   2
 -0.4626387013909083E-01   9   9   6   3
 -0.1061042160689540E-01   9   9   6   4
 -0.7157563477191957E-02   9   9   6   5
  0.5281725834091338E+00   9   9   6   6
  0.5593600249516297E+00   9   9   7   7
 -0.1062486420872856E+00   9   9   8   7
  0.4549423275127260E+00   9   9   8   8
  0.2063288516197059E-01   9   9   9   7
 -0.8413584406664010E-02   9   9   9   8
  0.5861749464321644E+00   9   9   9   9
  0.6340790268913981E+00  10  10   1   1
  0.6215348342510232E-01  10  10   2   1
  0.5045236472909466E+00  10  10   2   2
 -0.3349897789797324E-01  10  10   3   1
 -0.8316635966541472E-01  10  10   3   2
  0.4163117355465585E+00  10  10   3   3
 -0.5127578929780974E-01  10  10   4   1
  0.5881691591128657E-01  10  10   4   2
  0.4120184614504874E-01  10  10   4   3
  0.4434743653109159E+00  10  10   4   4
 -0.2891801078521101E-01  10  10   5   1
  0.7766376323790839E-02  10  10   5   2
 -0.1233708025720237E-01  10  10   5   3
 -0.4350488321168725E-02  10  10   5   4
  0.5405716810888587E+00  10  10   5   5
  0.4525009485998654E-02  10  10   6   1
  0.3546945071904893E-01  10  10   6   2
 -0.4033973201761373E-01  10  10   6   3
  0.4241630354547610E-02  10  10   6   4
  0.1250280616357073E-01  10  10   6   5
  0.5149787269999441E+00  10  10   6   6
  0.5299230228805254E+00  10  10   7   7
 -0.1063974800060155E+00  10  10   8   7
  0.4421513340572759E+00  10  10   8   8
  0.2775502200335345E-01  10  10   9   7
 -0.3614194569228069E-02  10  10   9   8
  0.5197263248675287E+00  10  10   9   9
  0.5764829247952720E+00  10  10  10  10
 -0.1605417954872834E+00  11  10   1   1
 -0.3684967222247493E-01  11  10   2   1
 -0.1022962081957842E+00  11  10   2   2
  0.3217910817050011E-01  11  10   3   1
  0.3977750144879397E-01  11  10   3   2
 -0.5215590066077043E-01  11  10   3   3
  0.3673908762791145E-01  11  10   4   1
 -0.3308326845996212E-01  11  10   4   2
 -0.1300481879968340E-02  11  10   4   3
 -0.6377315559285329E-01  11  10   4   4
  0.5163331575454709E-02  11  10   5   1
  0.1015417138525413E-02  11  10   5   2
 -0.2055473659100759E-02  11  10   5   3
 -0.5874466687324087E-02  11  10   5   4
 -0.9093380270587113E-01  11  10   5   5
 -0.3618772925027269E-02  11  10   6   1
 -0.1489853137244895E-01  11  10   6   2
  0.2001673022995360E-01  11  10   6   3
  0.2687285548706356E-02  11  10   6   4
 -0.3022481425738206E-02  11  10   6   5
 -0.9811185228607751E-01  11  10   6   6
 -0.1063974800060160E+00  11  10   7   7
  0.6003704770032764E-01  11  10   8   7
 -0.7321608561103564E-01  11  10   8   8
 -0.7538604028097817E-02  11  10   9   7
  0.4998596665277549E-03  11  10   9   8
 -0.9967417021795173E-01  11  10   9   9
 -0.1141800440547976E+00  11  10  10  10
  0.7642403309782000E-01  11  10  11  10
  0.5102348756346813E+00  11  11   1   1
  0.4173662691308696E-01  11  11   2   1
  0.4278346002298239E+00  11  11   2   2
 -0.2461730506564830E-01  11  11   3   1
 -0.5996580083860992E-01  11  11   3   2
  0.3682203091421478E+00  11  11   3   3
 -0.3498318728385397E-01  11  11   4   1
  0.4066293209063032E-01  11  11   4   2
  0.3101940696127659E-01  11  11   4   3
  0.3908713370478298E+00  11  11   4   4
 -0.1685724701068031E-01  11  11   5   1
  0.5875388863817006E-02  11  11   5   2
 -0.8173709325588851E-02  11  11   5   3
 -0.4819423379326752E-02  11  11   5   4
  0.4426688139442889E+00  11  11   5   5
  0.3119755891738518E-02  11  11   6   1
  0.2094468303376204E-01  11  11   6   2
 -0.2372716240614953E-01  11  11   6   3
  0.5186700707017211E-02  11  11   6   4
  0.6817890060496775E-02  11  11   6   5
  0.4311313755737852E+00  11  11   6   6
  0.4421513340572767E+00  11  11   7   7
 -0.7321608561103599E-01  11  11   8   7
  0.3881988632258473E+00  11  11   8   8
  0.1482271871503918E-01  11  11   9   7
  0.5535459067167875E-03  11  11   9   8
  0.4319225151374864E+00  11  11   9   9
  0.4734596193759222E+00  11  11  10  10
 -0.7183846160012070E-01  11  11  11  10
  0.4210513167132566E+00  11  11  11  11
  0.7950045438997855E-01  12  10   1   1
  0.4402335548510525E-01  12  10   2   1
 -0.2022535880210061E-01  12  10   2   2
 -0.9098013316279317E-02  12  10   3   1
 -0.1796484635287614E-01  12  10   3   2
  0.1766194314546902E-01  12  10   3   3
  0.2481199592647539E-02  12  10   4   1
 -0.2461264228872883E-01  12  10   4   2
  0.2904193121484418E-01  12  10   4   3
 -0.8312610372507901E-02  12  10   4   4
 -0.9072910584449078E-02  12  10   5   1
 -0.7098032351367375E-02  12  10   5   2
 -0.4080872070831813E-02  12  10   5   3
 -0.4679975347548139E-02  12  10   5   4
  0.3033920484057800E-01  12  10   5   5
  0.2544447163591781E-01  12  10   6   1
  0.3051048606488826E-01  12  10   6   2
 -0.2684568766576540E-02  12  10   6   3
  0.9182686285350981E-02  12  10   6   4
 -0.4016679399043013E-02  12  10   6   5
  0.5547076446379511E-02  12  10   6   6
  0.2775502200335328E-01  12  10   7   7
 -0.7538604028097634E-02  12  10   8   7
  0.1482271871503899E-01  12  10   8   8
  0.4473869547571719E-01  12  10   9   7
 -0.1399661385270796E-01  12  10   9   8
  0.1434463207177920E-01  12  10   9   9
  0.3708959787813244E-01  12  10  10  10
 -0.7780963134438879E-02  12  10  11  10
  0.1867612964323110E-01  12  10  11  11
  0.6648678881608208E-01  12  10  12  10
 -0.2640816833962273E-01  12  11   1   1
 -0.1720655702498672E-01  12  11   2   1
  0.3589832927902516E-02  12  11   2   2
  0.9785406783472825E-02  12  11   3   1
  0.3351499975169092E-03  12  11   3   2
 -0.5258032307448338E-02  12  11   3   3
  0.3437402027347478E-03  12  11   4   1
  0.1466338267475473E-01  12  11   4   2
 -0.3382055532484380E-02  12  11   4   3
  0.8401721363383815E-02  12  11   4   4
  0.2127315961654138E-02  12  11   5   1
  0.1928312528300669E-02  12  11   5   2
 -0.1291087884646962E-02  12  11   5   3
  0.7260275755553674E-03  12  11   5   4
 -0.5387484025196874E-02  12  11   5   5
 -0.1330301579583747E-01  12  11   6   1
 -0.9829065796172556E-02  12  11   6   2
  0.6498098711151864E-02  12  11   6   3
  0.1359251450400412E-02  12  11   6   4
  0.1357668806025940E-02  12  11   6   5
 -0.2807979611964910E-02  12  11   6   6
 -0.3614194569228225E-02  12  11   7   7
  0.4998596665276977E-03  12  11   8   7
  0.5535459067164371E-03  12  11   8   8
 -0.1399661385270815E-01  12  11   9   7
  0.9848353294512835E-02  12  11   9   8
 -0.5262493044285242E-02  12  11   9   9
 -0.4052927147029827E-02  12  11  10  10
  0.1235827316406860E-02  12  11  11  10
  0.2470897549970997E-02  12  11  11  11
 -0.1943588320766354E-01  12  11  12  10
  0.1524128292651593E-01  12  11  12  11
  0.6157014138242560E+00  12  12   1   1
  0.4989973550132921E-01  12  12   2   1
  0.5360429473882268E+00  12  12   2   2
 -0.3462299893891929E-01  12  12   3   1
 -0.6915005994946240E-01  12  12   3   2
  0.4185164248858224E+00  12  12   3   3
 -0.5180215994848480E-01  12  12   4   1
  0.7167640827282284E-01  12  12   4   2
  0.2574449586994487E-01  12  12   4   3
  0.4517684956966486E+00  12  12   4   4
 -0.2580477127053760E-01  12  12   5   1
  0.8980647890694995E-02  12  12   5   2
 -0.9140175964450228E-02  12  12   5   3
 -0.2631683451910687E-02  12  12   5   4
  0.5317402792139252E+00  12  12   5   5
  0.1550982409634927E-01  12  12   6   1
  0.1311480037680521E-01  12  12   6   2
 -0.4626387013909006E-01  12  12   6   3
 -0.1061042160689363E-01  12  12   6   4
  0.7157563477191950E-02  12  12   6   5
  0.5281725834091350E+00  12  12   6   6
  0.5197263248675292E+00  12  12   7   7
 -0.9967417021795161E-01  12  12   8   7
  0.4319225151374863E+00  12  12   8   8
  0.1434463207177936E-01  12  12   9   7
 -0.5262493044285055E-02  12  12   9   8
  0.5365559421268934E+00  12  12   9   9
  0.5593600249516290E+00  12  12  10  10
 -0.1062486420872858E+00  12  12  11  10
  0.4549423275127258E+00  12  12  11  11
  0.2063288516197040E-01  12  12  12  10
 -0.8413584406664287E-02  12  12  12  11
  0.5861749464321643E+00  12  12  12  12
  0.6014619090636876E+00  13  13   1   1
  0.4613793866235888E-01  13  13   2   1
  0.4880972281802472E+00  13  13   2   2
 -0.1753501867133955E-01  13  13   3   1
 -0.7053062039843494E-01  13  13   3   2
  0.4096270938000805E+00  13  13   3   3
 -0.3884472350540080E-01  13  13   4   1
  0.5060814414139769E-01  13  13   4   2
  0.4287786439974484E-01  13  13   4   3
  0.4349509382949361E+00  13  13   4   4
 -0.5322566078551867E-17  13  13   5   1
  0.1961395204124323E-17  13  13   5   2
  0.2087553833941971E-17  13  13   5   3
 -0.9510705789244981E-17  13  13   5   4
  0.5322958399843396E+00  13  13   5   5
 -0.2577293152955518E-02  13  13   6   1
  0.3444407428575086E-01  13  13   6   2
 -0.3875644316684920E-01  13  13   6   3
  0.5034724790013545E-02  13  13   6   4
  0.1219623846071467E-18  13  13   6   5
  0.5046592741385141E+00  13  13   6   6
  0.5405716810888586E+00  13  13   7   7
 -0.9093380270587081E-01  13  13   8   7
  0.4426688139442879E+00  13  13   8   8
  0.3033920484057814E-01  13  13   9   7
 -0.5387484025196773E-02  13  13   9   8
  0.5317402792139245E+00  13  13   9   9
  0.5405716810888580E+00  13  13  10  10
 -0.9093380270587098E-01  13  13  11  10
  0.4426688139442881E+00  13  13  11  11
  0.3033920484057795E-01  13  13  12  10
 -0.5387484025197023E-02  13  13  12  11
  0.5317402792139245E+00  13  13  12  12
  0.5549932733149184E+00  13  13  13  13
  0.5202835552223043E+00  14  14   1   1
  0.5698645688522186E-02  14  14   2   1
  0.5405944619925642E+00  14  14   2   2
 -0.2320578431421239E-01  14  14   3   1
 -0.4908446035307724E-01  14  14   3   2
  0.3961221093948472E+00  14  14   3   3
 -0.5118714048045025E-01  14  14   4   1
  0.9452402192668319E-01  14  14   4   2
 -0.3228488062946844E-02  14  14   4   3
  0.4529397930857603E+00  14  14   4   4
 -0.5775884075978730E-17  14  14   5   1
  0.9332042246731779E-17  14  14   5   2
 -0.1698674708532443E-17  14  14   5   3
 -0.2834370821325145E-17  14  14   5   4
  0.4854145380427821E+00  14  14   5   5
 -0.1121459490112353E-01  14  14   6   1
 -0.2505439567438963E-01  14  14   6   2
 -0.3962877074436200E-01  14  14   6   3
 -0.2194254808752555E-01  14  14   6   4
 -0.5030351264400832E-17  14  14   6   5
  0.5124660680112584E+00  14  14   6   6
  0.4929139464012573E+00  14  14   7   7
 -0.9040610331388738E-01  14  14   8   7
  0.4187050093359407E+00  14  14   8   8
 -0.3277602898970383E-01  14  14   9   7
  0.1098146907486507E-01  14  14   9   8
  0.5199746372416832E+00  14  14   9   9
  0.4929139464012567E+00  14  14  10  10
 -0.9040610331388738E-01  14  14  11  10
  0.4187050093359410E+00  14  14  11  11
 -0.3277602898970386E-01  14  14  12  10
  0.1098146907486502E-01  14  14  12  11
  0.5199746372416832E+00  14  14  12  12
  0.4854145380427813E+00  14  14  13  13
  0.5363074693541996E+00  14  14  14  14
  0.9874632716060087E-01  15  14   1   1
  0.1702514613366627E-01  15  14   2   1
  0.5332996111498194E-01  15  14   2   2
 -0.5864030242113391E-02  15  14   3   1
 -0.3437691456266438E-01  15  14   3   2
  0.2746533660099905E-01  15  14   3   3
 -0.1572991858807032E-01  15  14   4   1
  0.2181916026207675E-01  15  14   4   2
  0.1895515033237670E-01  15  14   4   3
  0.4514981283234849E-01  15  14   4   4
 -0.1273761640246577E-17  15  14   5   1
  0.2372346114937638E-18  15  14   5   2
  0.1103393332188931E-17  15  14   5   3
 -0.2706403572594820E-17  15  14   5   4
  0.7446933775381982E-01  15  14   5   5
 -0.4329952489502159E-02  15  14   6   1
  0.1814986504218219E-01  15  14   6   2
 -0.5805557671979256E-02  15  14   6   3
  0.5286711168956182E-02  15  14   6   4
  0.4464010753229511E-18  15  14   6   5
  0.5818580840219529E-01  15  14   6   6
  0.7948162961314507E-01  15  14   7   7
 -0.3248954485021083E-01  15  14   8   7
  0.5488678199405415E-01  15  14   8   8
  0.8553231174663511E-02  15  14   9   7
  0.4192713427949491E-02  15  14   9   8
  0.6599227751663218E-01  15  14   9   9
  0.7948162961314489E-01  15  14  10  10
 -0.3248954485021088E-01  15  14  11  10
  0.5488678199405425E-01  15  14  11  11
  0.8553231174663493E-02  15  14  12  10
  0.4192713427949458E-02  15  14  12  11
  0.6599227751663218E-01  15  14  12  12
  0.7446933775382009E-01  15  14  13  13
  0.5397402629828930E-01  15  14  14  14
  0.3440920528227007E-01  15  14  15  14
  0.3710597808472954E+00  15  15   1   1
  0.8499544535324907E-02  15  15   2   1
  0.3733536356256310E+00  15  15   2   2
 -0.1778816270687159E-01  15  15   3   1
 -0.2274889707505431E-02  15  15   3   2
  0.3371927338978037E+00  15  15   3   3
 -0.2027970399797480E-01  15  15   4   1
  0.2045635717383504E-01  15  15   4   2
 -0.1754181042815828E-01  15  15   4   3
  0.3332455428789153E+00  15  15   4   4
 -0.2336833871662494E-17  15  15   5   1
  0.2210959308442760E-17  15  15   5   2
 -0.1185457132640454E-17  15  15   5   3
 -0.1667294954393383E-17  15  15   5   4
  0.3470999860143418E+00  15  15   5   5
 -0.5355712406010515E-03  15  15   6   1
 -0.9074329161642261E-02  15  15   6   2
 -0.2182111638226908E-01  15  15   6   3
 -0.1023815490758406E-01  15  15   6   4
 -0.2832015466955806E-17  15  15   6   5
  0.3633680766510480E+00  15  15   6   6
  0.3497240355835748E+00  15  15   7   7
 -0.3933765232166714E-01  15  15   8   7
  0.3154723666237800E+00  15  15   8   8
 -0.7738084318538327E-02  15  15   9   7
 -0.3833212545995376E-02  15  15   9   8
  0.3625315965541601E+00  15  15   9   9
  0.3497240355835745E+00  15  15  10  10
 -0.3933765232166705E-01  15  15  11  10
  0.3154723666237804E+00  15  15  11  11
 -0.7738084318538424E-02  15  15  12  10
 -0.3833212545995404E-02  15  15  12  11
  0.3625315965541601E+00  15  15  12  12
  0.3470999860143399E+00  15  15  13  13
  0.3670060998280325E+00  15  15  14  14
  0.1529121455682791E-02  15  15  15  14
  0.3489771106723968E+00  15  15  15  15
 -0.1109872954375957E-01  16  14   1   1
  0.1767573675050899E-01  16  14   2   1
 -0.8610578686854707E-01  16  14   2   2
  0.4490491774564658E-02  16  14   3   1
  0.5204897994161994E-02  16  14   3   2
 -0.1673889282430785E-01  16  14   3   3
  0.1604096877493059E-01  16  14   4   1
 -0.5312607846886196E-01  16  14   4   2
  0.2021991111668145E-01  16  14   4   3
 -0.5038073514093980E-01  16  14   4   4