 &FCI NORB= 23,NELEC= 10,MS2= 0,
  ORBSYM=1,1,1,1,1,1,1,1,2,2,2,3,3,3,4,4,5,5,5,6,6,7,7,
  ISYM=1,
  OCC=  2,  1,  1,  0,  1,  0,  0,  0,
  CLOSED=  2,  1,  1,  0,  1,  0,  0,  0,
  FOCK=    -32.794951028896,     -1.940420941573,      0.287355180916,      1.757691908950,      1.757691908955,
       2.741965652346,      6.372472955575,      6.372472955596,     -0.853040196793,      0.293011365035,      1.961350583894,     -0.853040196793,      0.293011365035,      1.961350583894,      1.757691908955,      6.372472955596,     -0.853040196792,      0.293011365034,      1.961350583893,      1.757691908954,      6.372472955595,      1.757691908954,      6.372472955595,
 /
  0.5971994204052464E+01   1   1   1   1
 -0.6165796630866863E+00   2   1   1   1
  0.1033676341627329E+00   2   1   2   1
  0.1456376271714671E+01   2   2   1   1
 -0.2885621875403960E-01   2   2   2   1
  0.1021248410905696E+01   2   2   2   2
  0.1672992387779071E+00   3   1   1   1
 -0.2844648289921112E-01   3   1   2   1
  0.7439056309394986E-02   3   1   2   2
  0.7835297171784012E-02   3   1   3   1
 -0.2289025473417660E+00   3   2   1   1
  0.8013451977170093E-02   3   2   2   1
 -0.1149122855297379E+00   3   2   2   2
 -0.2093710658996975E-02   3   2   3   1
  0.2365077966488908E-01   3   2   3   2
  0.4284880444059572E+00   3   3   1   1
 -0.2229853500645609E-02   3   3   2   1
  0.3974481371442486E+00   3   3   2   2
  0.5564381658941771E-03   3   3   3   1
 -0.8971210667180183E-02   3   3   3   2
  0.3162830442718567E+00   3   3   3   3
 -0.8158754447665540E-10   4   1   1   1
  0.1361247365954520E-10   4   1   2   1
 -0.4015788938592827E-11   4   1   2   2
 -0.3741325461346920E-11   4   1   3   1
  0.1085296630959122E-11   4   1   3   2
 -0.3090880272273423E-12   4   1   3   3
  0.4883871053565253E-04   4   1   4   1
  0.8303158712779210E-10   4   2   1   1
 -0.3904670555021653E-11   4   2   2   1
  0.3010309096951526E-10   4   2   2   2
  0.1048708410915734E-11   4   2   3   1
 -0.7363335127473389E-11   4   2   3   2
  0.1856182495081495E-11   4   2   3   3
  0.5931458776173420E-03   4   2   4   1
  0.3361677550487887E-01   4   2   4   2
 -0.3380071388805663E-10   4   3   1   1
  0.1068372488280475E-11   4   3   2   1
 -0.1974704533039443E-10   4   3   2   2
 -0.2580480437719477E-12   4   3   3   1
  0.2649687523242021E-11   4   3   3   2
 -0.3826283310773743E-11   4   3   3   3
 -0.1278306940827734E-04   4   3   4   1
  0.1096559455880626E-01   4   3   4   2
  0.1282295144167053E-01   4   3   4   3
  0.6686275458085034E+00   4   4   1   1
 -0.9972965470928365E-04   4   4   2   1
  0.6461575916480550E+00   4   4   2   2
 -0.7553044604637418E-04   4   4   3   1
 -0.3286809513720343E-01   4   4   3   2
  0.3729197365159617E+00   4   4   3   3
  0.2902170465867472E-03   4   4   4   1
  0.2807349672611851E-01   4   4   4   2
  0.1492187502355044E-01   4   4   4   3
  0.6075576857602131E+00   4   4   4   4
 -0.1767225923015235E-14   5   1   1   1
  0.2948301688581455E-15   5   1   2   1
 -0.8715872383994362E-16   5   1   2   2
 -0.8103027371858471E-16   5   1   3   1
  0.2355811208667644E-16   5   1   3   2
 -0.6711415385952634E-17   5   1   3   3
 -0.1021668934516968E-18   5   1   4   1
 -0.4675858512114580E-18   5   1   4   2
  0.7844860688723173E-18   5   1   4   3
  0.1913961597807237E-07   5   1   4   4
  0.4883871053776579E-04   5   1   5   1
  0.1797355388923438E-14   5   2   1   1
 -0.8466346609661767E-16   5   2   2   1
  0.6511619527600857E-15   5   2   2   2
  0.2277121183360814E-16   5   2   3   1
 -0.1584234620786375E-15   5   2   3   2
  0.4027942899395746E-16   5   2   3   3
 -0.6621524152511588E-18   5   2   4   1
 -0.3712484243253115E-16   5   2   4   2
 -0.2432990246467498E-17   5   2   4   3
  0.1851427889501064E-05   5   2   4   4
  0.5931458776269961E-03   5   2   5   1
  0.3361677550628831E-01   5   2   5   2
 -0.7267889217225712E-15   5   3   1   1
  0.2314145086389852E-16   5   3   2   1
 -0.4228357368822375E-15   5   3   2   2
 -0.5580318454459709E-17   5   3   3   1
  0.5704969422312016E-16   5   3   3   2
 -0.8178432881541838E-16   5   3   3   3
  0.7528980581137155E-18   5   3   4   1
 -0.4087310884189394E-17   5   3   4   2
  0.2684157549232649E-17   5   3   4   3
  0.9840874428064840E-06   5   3   4   4
 -0.1278306944147633E-04   5   3   5   1
  0.1096559455898756E-01   5   3   5   2
  0.1282295144158015E-01   5   3   5   3
 -0.3407424496148761E-16   5   4   1   1
 -0.1279226917841333E-17   5   4   2   1
 -0.5715779693136609E-16   5   4   2   2
  0.1501425541824249E-17   5   4   3   1
  0.2171144154736439E-17   5   4   3   2
 -0.1943285250428872E-17   5   4   3   3
  0.1913961575906928E-07   5   4   4   1
  0.1851427889088266E-05   5   4   4   2
  0.9840874427613259E-06   5   4   4   3
 -0.7873494099367816E-15   5   4   4   4
 -0.2902170568509250E-03   5   4   5   1
 -0.2807349674414903E-01   5   4   5   2
 -0.1492187505051028E-01   5   4   5   3
  0.3586967683455348E-01   5   4   5   4
  0.6686275458086794E+00   5   5   1   1
 -0.9972965464547011E-04   5   5   2   1
  0.6461575916496262E+00   5   5   2   2
 -0.7553044611634425E-04   5   5   3   1
 -0.3286809513713407E-01   5   5   3   2
  0.3729197365159717E+00   5   5   3   3
 -0.2902170468805905E-03   5   5   4   1
 -0.2807349672514673E-01   5   5   4   2
 -0.1492187504874504E-01   5   5   4   3
  0.5358183321266468E+00   5   5   4   4
 -0.1913961598450454E-07   5   5   5   1
 -0.1851427889480054E-05   5   5   5   2
 -0.9840874433482948E-06   5   5   5   3
  0.4417489636959174E-15   5   5   5   4
  0.6075576857752605E+00   5   5   5   5
  0.5367179490107983E+00   6   1   1   1
 -0.9068711166054748E-01   6   1   2   1
  0.2300009426786086E-01   6   1   2   2
  0.2493415317248361E-01   6   1   3   1
 -0.6398876620813435E-02   6   1   3   2
  0.1802659097253246E-02   6   1   3   3
 -0.1197384264498667E-10   6   1   4   1
  0.3297682718680243E-11   6   1   4   2
 -0.8489472801605019E-12   6   1   4   3
  0.8040382808282488E-04   6   1   4   4
 -0.2593337874272686E-15   6   1   5   1
  0.7153522345580002E-16   6   1   5   2
 -0.1838779068561644E-16   6   1   5   3
  0.5130958231742910E-17   6   1   5   4
  0.8040382784744914E-04   6   1   5   5
  0.7994937996721302E-01   6   1   6   1
 -0.5477015448176916E+00   6   2   1   1
  0.2572103800828271E-01   6   2   2   1
 -0.1979087736392018E+00   6   2   2   2
 -0.6743138666481246E-02   6   2   3   1
  0.4815696380779350E-01   6   2   3   2
 -0.1187681764401271E-01   6   2   3   3
  0.3478428694310039E-11   6   2   4   1
 -0.1294286866478553E-10   6   2   4   2
  0.6261791606707404E-11   6   2   4   3
 -0.2306438324343830E-01   6   2   4   4
  0.7541697676038265E-16   6   2   5   1
 -0.2787335221905373E-15   6   2   5   2
  0.1350876619716055E-15   6   2   5   3
  0.1865443590728183E-15   6   2   5   4
 -0.2306438325157053E-01   6   2   5   5
 -0.2056344193601647E-01   6   2   6   1
  0.1219668065829164E+00   6   2   6   2
  0.2407158072566840E+00   6   3   1   1
 -0.7124023764415959E-02   6   3   2   1
  0.1431630220704291E+00   6   3   2   2
  0.1848542946396455E-02   6   3   3   1
 -0.1969761304632189E-01   6   3   3   2
  0.2923875030763112E-01   6   3   3   3
 -0.9715882307270796E-12   6   3   4   1
  0.6354501010988438E-11   6   3   4   2
 -0.2479217703058780E-11   6   3   4   3
  0.8099054066766433E-01   6   3   4   4
 -0.2108074553610820E-16   6   3   5   1
  0.1375079673528763E-15   6   3   5   2
 -0.5271229474270365E-16   6   3   5   3
  0.6566978373012618E-16   6   3   5   4
  0.8099054066454056E-01   6   3   5   5
  0.5725364254584531E-02   6   3   6   1
 -0.3483078932714256E-01   6   3   6   2
  0.2932449189838462E-01   6   3   6   3
 -0.6252944933072777E-10   6   4   1   1
  0.3438983498847564E-11   6   4   2   1
 -0.1878706056970328E-10   6   4   2   2
 -0.8798784927923664E-12   6   4   3   1
  0.4843774960853321E-11   6   4   3   2
 -0.1177558810397635E-13   6   4   3   3
  0.1274782890473946E-03   6   4   4   1
  0.2910823461208813E-01   6   4   4   2
  0.1573862788054855E-01   6   4   4   3
  0.3033536180412815E-01   6   4   4   4
  0.2942168447885073E-17   6   4   5   1
  0.1587685534116040E-15   6   4   5   2
  0.8332425434101139E-16   6   4   5   3
  0.2000596341874765E-05   6   4   5   4
 -0.3033536181026506E-01   6   4   5   5
 -0.2735566086573034E-11   6   4   6   1
  0.1697982508700296E-10   6   4   6   2
 -0.1531294742113860E-11   6   4   6   3
  0.3547751814215861E-01   6   4   6   4
 -0.1351016108766670E-14   6   5   1   1
  0.7445918923457641E-16   6   5   2   1
 -0.4043638277917717E-15   6   5   2   2
 -0.1903691647674664E-16   6   5   3   1
  0.1049713247151283E-15   6   5   3   2
 -0.4775148277255302E-19   6   5   3   3
  0.2801512761838272E-17   6   5   4   1
  0.1554922179156093E-15   6   5   4   2
  0.8428680169906603E-16   6   5   4   3
  0.2000596341455470E-05   6   5   4   4
  0.1274782889197931E-03   6   5   5   1
  0.2910823460498653E-01   6   5   5   2
  0.1573862787679701E-01   6   5   5   3
 -0.3033536179106414E-01   6   5   5   4
 -0.2000596341590029E-05   6   5   5   5
 -0.5924213061797397E-16   6   5   6   1
  0.3673256736598727E-15   6   5   6   2
 -0.3264207832894307E-16   6   5   6   3
  0.3513241540655009E-15   6   5   6   4
  0.3547751812632870E-01   6   5   6   5
  0.1136742675570794E+01   6   6   1   1
 -0.2347115354530921E-01   6   6   2   1
  0.8010555196108752E+00   6   6   2   2
  0.6051264076065736E-02   6   6   3   1
 -0.7296854907893217E-01   6   6   3   2
  0.3741595047467086E+00   6   6   3   3
 -0.3207399454505107E-11   6   6   4   1
  0.2593068730691598E-10   6   6   4   2
 -0.1065269356016848E-10   6   6   4   3
  0.5706831879809292E+00   6   6   4   4
 -0.6960674392857361E-16   6   6   5   1
  0.5606480293029453E-15   6   6   5   2
 -0.2273388576235254E-15   6   6   5   3
  0.3120080457545665E-15   6   6   5   4
  0.5706831879662503E+00   6   6   5   5
  0.1884374432915814E-01   6   6   6   1
 -0.1229535989636321E+00   6   6   6   2
  0.1081534087611216E+00   6   6   6   3
 -0.2430974740083863E-11   6   6   6   4
 -0.5159824279887976E-16   6   6   6   5
  0.6674897692626593E+00   6   6   6   6
 -0.1134191747207468E-10   7   1   1   1
  0.2278367611297245E-11   7   1   2   1
 -0.1145841037650679E-13   7   1   2   2
 -0.6233277773024377E-12   7   1   3   1
  0.3938628481661693E-13   7   1   3   2
 -0.1491576425107984E-13   7   1   3   3
  0.3698375312992802E-03   7   1   4   1
  0.3121463890778172E-02   7   1   4   2
 -0.1844725740712190E-03   7   1   4   3
  0.1338994965055089E-02   7   1   4   4
  0.8278389481117559E-08   7   1   5   1
  0.6987039348980829E-07   7   1   5   2
 -0.4129207253203488E-08   7   1   5   3
  0.5833393267269786E-07   7   1   5   4
 -0.1338994964896085E-02   7   1   5   5
 -0.1871799511979847E-11   7   1   6   1
  0.8416468617718165E-12   7   1   6   2
 -0.1435687492425346E-12   7   1   6   3
  0.1808613438453540E-03   7   1   6   4
  0.4048374001305000E-08   7   1   6   5
 -0.3857312189217225E-12   7   1   6   6
  0.2961566724376243E-02   7   1   7   1
  0.1738561108928210E-10   7   2   1   1
 -0.9802927580358044E-12   7   2   2   1
  0.4714593340360630E-11   7   2   2   2
  0.2780818722501641E-12   7   2   3   1
 -0.1094449583363750E-11   7   2   3   2
  0.2152875312864043E-12   7   2   3   3
  0.1627219248373602E-02   7   2   4   1
  0.3651720295616664E-01   7   2   4   2
 -0.2282322090170600E-02   7   2   4   3
  0.1780285652332220E-01   7   2   4   4
  0.3642343885950725E-07   7   2   5   1
  0.8173957569177321E-06   7   2   5   2
 -0.5108716553856406E-07   7   2   5   3
  0.7755896482461812E-06   7   2   5   4
 -0.1780285652445539E-01   7   2   5   5
  0.1278759363607481E-11   7   2   6   1
  0.3962810460183526E-11   7   2   6   2
 -0.8665095046436617E-13   7   2   6   3
  0.1047251960362832E-01   7   2   6   4
  0.2344153548254874E-06   7   2   6   5
  0.3882109022139612E-11   7   2   6   6
  0.1013148843194084E-01   7   2   7   1
  0.8666446107004168E-01   7   2   7   2
 -0.6048182146634631E-11   7   3   1   1
  0.2538211153263750E-12   7   3   2   1
 -0.2962006717814217E-11   7   3   2   2
 -0.8403904716250526E-13   7   3   3   1
  0.3769477285715981E-12   7   3   3   2
 -0.8192917877365114E-12   7   3   3   3
 -0.4270217898825280E-03   7   3   4   1
 -0.1499378757038790E-01   7   3   4   2
 -0.6857154450200078E-02   7   3   4   3
 -0.1260022207653556E-01   7   3   4   4
 -0.9558393603695416E-08   7   3   5   1
 -0.3356187590510484E-06   7   3   5   2
 -0.1534895473468367E-06   7   3   5   3
 -0.5489344810654824E-06   7   3   5   4
  0.1260022207479401E-01   7   3   5   5
 -0.3487596441989969E-12   7   3   6   1
 -0.1915174929490215E-11   7   3   6   2
 -0.1306199690257587E-11   7   3   6   3
 -0.1082171807593838E-01   7   3   6   4
 -0.2422317626139282E-06   7   3   6   5
 -0.4761773765959731E-11   7   3   6   6
 -0.2656234426591359E-02   7   3   7   1
 -0.2099870579967256E-01   7   3   7   2
  0.9482611430372165E-02   7   3   7   3
  0.1978278934705960E+00   7   4   1   1
 -0.6086000276154233E-03   7   4   2   1
  0.1453015159995703E+00   7   4   2   2
  0.9159293587801369E-04   7   4   3   1
 -0.2879204034702799E-01   7   4   3   2
  0.9618282199121482E-02   7   4   3   3
  0.2692390637438654E-03   7   4   4   1
  0.4560885087478606E-02   7   4   4   2
 -0.4964985176001549E-02   7   4   4   3
  0.4411773269890909E-01   7   4   4   4
  0.1172952375322112E-07   7   4   5   1
  0.1986970602382605E-06   7   4   5   2
 -0.2163018671663389E-06   7   4   5   3
 -0.3866868672851250E-07   7   4   5   4
  0.4757278435664759E-01   7   4   5   5
  0.2166409862139201E-03   7   4   6   1
 -0.4771296657591112E-01   7   4   6   2
  0.2217094934712757E-01   7   4   6   3
 -0.2462522360023468E-02   7   4   6   4
 -0.1072809210522341E-06   7   4   6   5
  0.8705730853467544E-01   7   4   6   6
  0.1522648200874379E-02   7   4   7   1
  0.1807773218619585E-01   7   4   7   2
 -0.1602119168452813E-02   7   4   7   3
  0.5356092432615343E-01   7   4   7   4
  0.4428150779148463E-05   7   5   1   1
 -0.1362281445340532E-07   7   5   2   1
  0.3252407989577986E-05   7   5   2   2
  0.2050202947885706E-08   7   5   3   1
 -0.6444768412548140E-06   7   5   3   2
  0.2152942290743631E-06   7   5   3   3
  0.1172952375070688E-07   7   5   4   1
  0.1986970602375770E-06   7   5   4   2
 -0.2163018671728938E-06   7   5   4   3
  0.1064862282238400E-05   7   5   4   4
 -0.2692390578253516E-03   7   5   5   1
 -0.4560885072944147E-02   7   5   5   2
  0.4964985178258110E-02   7   5   5   3
 -0.1727525830814886E-02   7   5   5   4
  0.9875249085503082E-06   7   5   5   5
  0.4849260309289749E-08   7   5   6   1
 -0.1068000100552956E-05   7   5   6   2
  0.4962713038272831E-06   7   5   6   3
 -0.1072809210560074E-06   7   5   6   4
  0.2462522345259686E-02   7   5   6   5
  0.1948678125493560E-05   7   5   6   6
  0.3225213474739810E-07   7   5   7   1
  0.3829154062175763E-06   7   5   7   2
 -0.3393545749506997E-07   7   5   7   3
  0.1014564680578958E-05   7   5   7   4
  0.8235188266142203E-02   7   5   7   5
  0.2975242615438939E-10   7   6   1   1
  0.5798939316727548E-12   7   6   2   1
  0.2615105689961187E-10   7   6   2   2
 -0.1901965967500811E-12   7   6   3   1
 -0.5147325686838238E-11   7   6   3   2
  0.1993519587299098E-11   7   6   3   3
 -0.8993984657764568E-03   7   6   4   1
 -0.1468916106949363E-01   7   6   4   2
 -0.3427485594192392E-02   7   6   4   3
 -0.9764717586361864E-02   7   6   4   4
 -0.2013200437576911E-07   7   6   5   1
 -0.3288000437858215E-06   7   6   5   2
 -0.7672033876577586E-07   7   6   5   3
 -0.4254044217735342E-06   7   6   5   4
  0.9764717604568551E-02   7   6   5   5
 -0.8696527248207571E-12   7   6   6   1
 -0.1145948484808745E-10   7   6   6   2
  0.3865081050718255E-11   7   6   6   3
 -0.5942257910940251E-02   7   6   6   4
 -0.1330106363493213E-06   7   6   6   5
  0.1514443014226198E-10   7   6   6   6
 -0.6297621414370421E-02   7   6   7   1
 -0.3506468798612165E-01   7   6   7   2
  0.1161480621737141E-01   7   6   7   3
 -0.3634113537274187E-02   7   6   7   4
 -0.7697636222337294E-07   7   6   7   5
  0.2319751256735562E-01   7   6   7   6
  0.1236335095264438E+01   7   7   1   1
 -0.4277563770536104E-02   7   7   2   1
  0.9900112748157689E+00   7   7   2   2
  0.7662918818845017E-03   7   7   3   1
 -0.1085018680681021E+00   7   7   3   2
  0.3947307136496299E+00   7   7   3   3
  0.1095668034765506E-02   7   7   4   1
  0.3093819294639805E-01   7   7   4   2
  0.3640406224576682E-02   7   7   4   3
  0.6656266059040614E+00   7   7   4   4
  0.2320800895989491E-07   7   7   5   1
  0.6553206230480704E-06   7   7   5   2
  0.7710965147289195E-07   7   7   5   3
  0.1055681570618218E-05   7   7   5   4
  0.6184639703919793E+00   7   7   5   5
  0.2054219146364333E-02   7   7   6   1
 -0.1803029149654589E+00   7   7   6   2
  0.1354850741646600E+00   7   7   6   3
  0.1473643010827644E-01   7   7   6   4
  0.3121412610134666E-06   7   7   6   5
  0.7721026909404656E+00   7   7   6   6
  0.6621405704588896E-02   7   7   7   1
  0.6030270471470400E-01   7   7   7   2
 -0.1760138333006462E-01   7   7   7   3
  0.1613206911205385E+00   7   7   7   4
  0.3610978874346830E-05   7   7   7   5
 -0.2571290265463297E-01   7   7   7   6
  0.1046853591126987E+01   7   7   7   7
 -0.8458672320203903E-18   8   1   1   1
  0.1816941995193822E-18   8   1   2   1
  0.2649306311035506E-20   8   1   2   2
 -0.3535498658107359E-19   8   1   3   1
  0.9348375817854066E-19   8   1   3   2
 -0.2853784171925860E-19   8   1   3   3
 -0.8278389481788406E-08   8   1   4   1
 -0.6987039349472328E-07   8   1   4   2
  0.4129207253516088E-08   8   1   4   3
  0.5833393293669867E-07   8   1   4   4
  0.3698375313100733E-03   8   1   5   1
  0.3121463890941215E-02   8   1   5   2
 -0.1844725740691767E-03   8   1   5   3
 -0.1338994970918252E-02   8   1   5   4
 -0.5833393293630723E-07   8   1   5   5
 -0.2077572143324029E-18   8   1   6   1
 -0.2850479404049379E-18   8   1   6   2
 -0.2953942699258154E-20   8   1   6   3
 -0.4048373991369782E-08   8   1   6   4
  0.1808613434350413E-03   8   1   6   5
 -0.6503414200723885E-20   8   1   6   6
  0.9321868988548821E-19   8   1   7   1
  0.4705125035276700E-18   8   1   7   2
 -0.1866771808906257E-18   8   1   7   3
  0.3225213464333490E-07   8   1   7   4
 -0.1522648196078455E-02   8   1   7   5
 -0.5797188905341390E-18   8   1   7   6
 -0.7960572862705586E-08   8   1   7   7
  0.2961566724427722E-02   8   1   8   1
  0.3798727418647631E-17   8   2   1   1
 -0.1309264539305142E-18   8   2   2   1
  0.2904605473245052E-17   8   2   2   2
  0.9055363414858787E-19   8   2   3   1
  0.4122172662773685E-18   8   2   3   2
 -0.6390185704647534E-19   8   2   3   3
 -0.3642343886252870E-07   8   2   4   1
 -0.8173957569407749E-06   8   2   4   2
  0.5108716554958920E-07   8   2   4   3
  0.7755896482422688E-06   8   2   4   4
  0.1627219248448680E-02   8   2   5   1
  0.3651720295685915E-01   8   2   5   2
 -0.2282322090480258E-02   8   2   5   3
 -0.1780285652360902E-01   8   2   5   4
 -0.7755896482342192E-06   8   2   5   5
 -0.1088865851671731E-18   8   2   6   1
 -0.4015688178985926E-17   8   2   6   2
  0.6282293437550877E-18   8   2   6   3
 -0.2344153546823598E-06   8   2   6   4
  0.1047251959750281E-01   8   2   6   5
 -0.2289305554046212E-18   8   2   6   6
  0.6650715850661744E-18   8   2   7   1
  0.6250929996794008E-17   8   2   7   2
 -0.2998262981900450E-17   8   2   7   3
  0.3829154061277560E-06   8   2   7   4
 -0.1807773218154624E-01   8   2   7   5
 -0.5884857389745478E-17   8   2   7   6
 -0.7249881598238997E-07   8   2   7   7
  0.1013148843222629E-01   8   2   8   1
  0.8666446107120530E-01   8   2   8   2
  0.5565979917632465E-17   8   3   1   1
  0.1299027585279819E-19   8   3   2   1
  0.3930003818839174E-17   8   3   2   2
 -0.1882498940303447E-19   8   3   3   1
 -0.1167079885468330E-17   8   3   3   2
  0.3950796191951921E-18   8   3   3   3
  0.9558393604215633E-08   8   3   4   1
  0.3356187590669029E-06   8   3   4   2
  0.1534895473462861E-06   8   3   4   3
 -0.5489344813502637E-06   8   3   4   4
 -0.4270217898892696E-03   8   3   5   1
 -0.1499378757090602E-01   8   3   5   2
 -0.6857154450129920E-02   8   3   5   3
  0.1260022208215677E-01   8   3   5   4
  0.5489344813519699E-06   8   3   5   5
  0.3978347321623857E-19   8   3   6   1
  0.5342784282492681E-20   8   3   6   2
  0.1247766560410617E-17   8   3   6   3
  0.2422317625400184E-06   8   3   6   4
 -0.1082171807253272E-01   8   3   6   5
  0.4694369755392509E-17   8   3   6   6
 -0.1550946077983740E-18   8   3   7   1
 -0.1343152359424436E-17   8   3   7   2
 -0.7204866246638134E-18   8   3   7   3
 -0.3393545742781190E-07   8   3   7   4
  0.1602119165235622E-02   8   3   7   5
  0.5049660029499467E-18   8   3   7   6
  0.2116123077396516E-07   8   3   7   7
 -0.2656234426706191E-02   8   3   8   1
 -0.2099870580017732E-01   8   3   8   2
  0.9482611430591885E-02   8   3   8   3
 -0.4428150779240531E-05   8   4   1   1
  0.1362281445238655E-07   8   4   2   1
 -0.3252407989640268E-05   8   4   2   2
 -0.2050202947769543E-08   8   4   3   1
  0.6444768412721600E-06   8   4   3   2
 -0.2152942290789882E-06   8   4   3   3
  0.1172952375273635E-07   8   4   4   1
  0.1986970598000095E-06   8   4   4   2
 -0.2163018670516932E-06   8   4   4   3
 -0.9875249084285574E-06   8   4   4   4
 -0.2692390576805249E-03   8   4   5   1
 -0.4560885069430719E-02   8   4   5   2
  0.4964985179311720E-02   8   4   5   3
 -0.1727525833505095E-02   8   4   5   4
 -0.1064862282353820E-05   8   4   5   5
 -0.4849260305383657E-08   8   4   6   1
  0.1068000100634729E-05   8   4   6   2
 -0.4962713038681440E-06   8   4   6   3
 -0.1072809208915949E-06   8   4   6   4
  0.2462522347531939E-02   8   4   6   5
 -0.1948678125566349E-05   8   4   6   6
  0.3225213472287541E-07   8   4   7   1
  0.3829154060551206E-06   8   4   7   2
 -0.3393545745312050E-07   8   4   7   3
 -0.1014564680286329E-05   8   4   7   4
  0.8235188233940973E-02   8   4   7   5
 -0.7697636252070203E-07   8   4   7   6
 -0.2974916081491539E-05   8   4   7   7
 -0.1522648195106338E-02   8   4   8   1
 -0.1807773217541819E-01   8   4   8   2
  0.1602119163002702E-02   8   4   8   3
  0.8235188264941837E-02   8   4   8   4
  0.1978278934708459E+00   8   5   1   1
 -0.6086000275361812E-03   8   5   2   1
  0.1453015160000307E+00   8   5   2   2
  0.9159293586528472E-04   8   5   3   1
 -0.2879204034730728E-01   8   5   3   2
  0.9618282199195506E-02   8   5   3   3
 -0.2692390639651537E-03   8   5   4   1
 -0.4560885070955820E-02   8   5   4   2
  0.4964985169669786E-02   8   5   4   3
  0.4757278435628880E-01   8   5   4   4
 -0.1172952375477513E-07   8   5   5   1
 -0.1986970598025392E-06   8   5   5   2
  0.2163018670526136E-06   8   5   5   3
  0.3866868667443258E-07   8   5   5   4
  0.4411773269776015E-01   8   5   5   5
  0.2166409860177021E-03   8   5   6   1
 -0.4771296657859186E-01   8   5   6   2
  0.2217094934862410E-01   8   5   6   3
  0.2462522350745450E-02   8   5   6   4
  0.1072809209009661E-06   8   5   6   5
  0.8705730853661443E-01   8   5   6   6
 -0.1522648199692218E-02   8   5   7   1
 -0.1807773217820249E-01   8   5   7   2
  0.1602119166312578E-02   8   5   7   3
  0.3709054781164922E-01   8   5   7   4
  0.1014564680269874E-05   8   5   7   5
  0.3634113550198592E-02   8   5   7   6
  0.1329045488731698E+00   8   5   7   7
 -0.3225213462146156E-07   8   5   8   1
 -0.3829154059867559E-06   8   5   8   2
  0.3393545738047546E-07   8   5   8   3
 -0.1014564680591536E-05   8   5   8   4
  0.5356092432461702E-01   8   5   8   5
 -0.2178673942670013E-16   8   6   1   1
  0.1644100737769552E-18   8   6   2   1
 -0.1545237229559978E-16   8   6   2   2
 -0.6948898543781775E-19   8   6   3   1
  0.2584372597219590E-17   8   6   3   2
 -0.1094455209965437E-17   8   6   3   3
  0.2013200438025545E-07   8   6   4   1
  0.3288000438765603E-06   8   6   4   2
  0.7672033874203921E-07   8   6   4   3
 -0.4254044193895732E-06   8   6   4   4
 -0.8993984659397942E-03   8   6   5   1
 -0.1468916107325590E-01   8   6   5   2
 -0.3427485593071501E-02   8   6   5   3
  0.9764717541693613E-02   8   6   5   4
  0.4254044193782389E-06   8   6   5   5
  0.1351805378416947E-19   8   6   6   1
  0.6441362507033867E-17   8   6   6   2
 -0.2063791759393502E-17   8   6   6   3
  0.1330106362972210E-06   8   6   6   4
 -0.5942257908496626E-02   8   6   6   5
 -0.8261370895996367E-17   8   6   6   6
 -0.4390667882108887E-18   8   6   7   1
 -0.2608730309206230E-17   8   6   7   2
 -0.4578509397678203E-18   8   6   7   3
 -0.7697636313918912E-07   8   6   7   4
  0.3634113578333852E-02   8   6   7   5
  0.1759253517465314E-17   8   6   7   6
  0.3091329003191242E-07   8   6   7   7
 -0.6297621415364979E-02   8   6   8   1
 -0.3506468799553054E-01   8   6   8   2
  0.1161480621926145E-01   8   6   8   3
  0.3634113574569634E-02   8   6   8   4
  0.7697636304574339E-07   8   6   8   5
  0.2319751257307830E-01   8   6   8   6
  0.3017506404760746E-16   8   7   1   1
  0.1133844317928714E-18   8   7   2   1
  0.2279250335946883E-16   8   7   2   2
 -0.1039424206864662E-18   8   7   3   1
 -0.5446150227718475E-17   8   7   3   2
  0.1627650658786427E-17   8   7   3   3
  0.2320800905155287E-07   8   7   4   1
  0.6553206229161716E-06   8   7   4   2
  0.7710965170552219E-07   8   7   4   3
 -0.1055681570831160E-05   8   7   4   4
 -0.1095668038774226E-02   8   7   5   1
 -0.3093819293867763E-01   8   7   5   2
 -0.3640406236007910E-02   8   7   5   3
  0.2358131776060693E-01   8   7   5   4
  0.1055681570842991E-05   8   7   5   5
 -0.3932717606809521E-18   8   7   6   1
 -0.1208986103687126E-16   8   7   6   2
  0.3846298021658347E-17   8   7   6   3
  0.3121412615564592E-06   8   7   6   4
 -0.1473643013316221E-01   8   7   6   5
  0.1342520749637841E-16   8   7   6   6
 -0.7960572855319428E-08   8   7   7   1
 -0.7249881599098240E-07   8   7   7   2
  0.2116123077581578E-07   8   7   7   3
 -0.3180313965671445E-06   8   7   7   4
  0.1420807112911118E-01   8   7   7   5
  0.3091329003667418E-07   8   7   7   6
  0.1340913571240591E-16   8   7   7   7
 -0.6621405721886434E-02   8   7   8   1
 -0.6030270469424445E-01   8   7   8   2
  0.1760138331052616E-01   8   7   8   3
  0.1420807112437248E-01   8   7   8   4
  0.3180313964682858E-06   8   7   8   5
  0.2571290269886390E-01   8   7   8   6
  0.5713436314182511E-01   8   7   8   7
  0.1236335095264324E+01   8   8   1   1
 -0.4277563770266963E-02   8   8   2   1
  0.9900112748174612E+00   8   8   2   2
  0.7662918817678901E-03   8   8   3   1
 -0.1085018680685245E+00   8   8   3   2
  0.3947307136497867E+00   8   8   3   3
 -0.1095668036336932E-02   8   8   4   1
 -0.3093819288849961E-01   8   8   4   2
 -0.3640406261063071E-02   8   8   4   3
  0.6184639703958725E+00   8   8   4   4
 -0.2320800899431701E-07   8   8   5   1
 -0.6553206217959098E-06   8   8   5   2
 -0.7710965225206965E-07   8   8   5   3
 -0.1055681570632716E-05   8   8   5   4
  0.6656266059065211E+00   8   8   5   5
  0.2054219145471214E-02   8   8   6   1
 -0.1803029149778141E+00   8   8   6   2
  0.1354850741650400E+00   8   8   6   3
 -0.1473643013663062E-01   8   8   6   4
 -0.3121412616215134E-06   8   8   6   5
  0.7721026909362886E+00   8   8   6   6
 -0.6621405703138069E-02   8   8   7   1
 -0.6030270470142317E-01   8   8   7   2
  0.1760138332290625E-01   8   8   7   3
  0.1329045488696495E+00   8   8   7   4
  0.2974916081371608E-05   8   8   7   5
  0.2571290270673946E-01   8   8   7   6
  0.9325848648135026E+00   8   8   7   7
  0.7960572862361446E-08   8   8   8   1
  0.7249881598256200E-07   8   8   8   2
 -0.2116123076518539E-07   8   8   8   3
 -0.3610978874320339E-05   8   8   8   4
  0.1613206911166336E+00   8   8   8   5
 -0.3091329006197356E-07   8   8   8   6
  0.3253050548009332E-16   8   8   8   7
  0.1046853591122364E+01   8   8   8   8
  0.1413082824743666E+01   9   9   1   1
 -0.1996442126288074E-01   9   9   2   1
  0.9889787568972680E+00   9   9   2   2
  0.4860474948243602E-02   9   9   3   1
 -0.1091719533664722E+00   9   9   3   2
  0.3948669408431157E+00   9   9   3   3
 -0.7868985113269842E-03   9   9   4   1
 -0.1979754599328884E-01   9   9   4   2
 -0.3275766067789378E-02   9   9   4   3
  0.6195906336307303E+00   9   9   4   4
  0.1362878978880608E-02   9   9   5   1
  0.3428861481890576E-01   9   9   5   2
  0.5673505200126502E-02   9   9   5   3
 -0.2318557699546345E-01   9   9   5   4
  0.6463603135965130E+00   9   9   5   5
  0.1529633334006075E-01   9   9   6   1
 -0.1917692519336802E+00   9   9   6   2
  0.1387180188330235E+00   9   9   6   3
 -0.1135328237880682E-01   9   9   6   4
  0.1966346358731236E-01   9   9   6   5
  0.7840506647588659E+00   9   9   6   6
 -0.5254148727976951E-02   9   9   7   1
 -0.3541280720533155E-01   9   9   7   2
  0.1093729403425302E-01   9   9   7   3
  0.1296602090031578E+00   9   9   7   4
 -0.9896490555983635E-02   9   9   7   5
  0.1657085073227271E-01   9   9   7   6
  0.9307027273847929E+00   9   9   7   7
  0.9100461013288987E-02   9   9   8   1
  0.6133683809799018E-01   9   9   8   2
 -0.1894396649995305E-01   9   9   8   3
 -0.9902550997838926E-02   9   9   8   4
  0.1410906212461174E+00   9   9   8   5
 -0.2870158194790530E-01   9   9   8   6
 -0.4526926766557082E-01   9   9   8   7
  0.9829752718765834E+00   9   9   8   8
  0.1032198951532921E+01   9   9   9   9
 -0.2347040110447093E+00  10   9   1   1
  0.5020870215873920E-02  10   9   2   1
 -0.1297273402930620E+00  10   9   2   2
 -0.1236181972399244E-02  10   9   3   1
  0.2416612164088058E-01  10   9   3   2
 -0.1384927384426141E-01  10   9   3   3
  0.1750262629060310E-03  10   9   4   1
  0.2053539020554653E-02  10   9   4   2
 -0.1633730208760150E-02  10   9   4   3
 -0.4779288103461468E-01  10   9   4   4
 -0.3031389877380313E-03  10   9   5   1
 -0.3556653380659355E-02  10   9   5   2