 &FCI NORB= 28,NELEC= 12,MS2= 0,
  ORBSYM=1,1,1,1,1,1,1,2,2,2,3,3,3,4,5,5,5,5,5,5,5,6,6,6,7,7,7,8,
  ISYM=1,
  OCC=  2,  1,  1,  0,  2,  0,  0,  0,
  CLOSED=  2,  1,  1,  0,  2,  0,  0,  0,
  FOCK=    -11.364934165999,     -1.061604619512,     -0.106339574001,      0.592093026600,      0.730469640741,
       1.217840119859,      2.038070454716,     -0.454933738531,      0.629911175021,      1.370582758107,     -0.454933738531,      0.629911175021,      1.370582758107,      1.217840119859,    -11.362685939795,     -0.515868594361,      0.395116590072,      0.932543507166,      1.253044868138,      1.630439824073,      2.405061899547,      0.165192878421,      0.767543136903,      2.100509805443,      0.165192878421,      0.767543136903,      2.100509805443,      1.630439824073,
 /
  0.1965874779726403E+01   1   1   1   1
 -0.1744588275258935E+00   2   1   1   1
  0.3102185679030927E-01   2   1   2   1
  0.7021081170152866E+00   2   2   1   1
  0.7444405954521571E-03   2   2   2   1
  0.6488009688804734E+00   2   2   2   2
  0.3441454312696083E-01   3   1   1   1
  0.2675011801088552E-03   3   1   2   1
  0.2102918646159907E-01   3   1   2   2
  0.1109310867434523E-01   3   1   3   1
  0.9488262731974652E-01   3   2   1   1
  0.6258010040632873E-02   3   2   2   1
  0.1215576718571263E+00   3   2   2   2
  0.1452734985886777E-01   3   2   3   1
  0.6666615473694411E-01   3   2   3   2
  0.5604735447166711E+00   3   3   1   1
 -0.4286336654525856E-02   3   3   2   1
  0.4706737439731391E+00   3   3   2   2
  0.6323374791848283E-03   3   3   3   1
  0.3236794110025785E-01   3   3   3   2
  0.4495555225852260E+00   3   3   3   3
 -0.1088224558255782E-01   4   1   1   1
 -0.3583364442147422E-02   4   1   2   1
 -0.1714218897385940E-01   4   1   2   2
 -0.1004180151502739E-01   4   1   3   1
 -0.1249236005226390E-01   4   1   3   2
 -0.4676402806759463E-03   4   1   3   3
  0.9533039033968453E-02   4   1   4   1
 -0.7015220083571060E-01   4   2   1   1
 -0.2742567836171092E-02   4   2   2   1
 -0.6400392692628330E-01   4   2   2   2
 -0.9061807544177045E-02   4   2   3   1
 -0.3661150682163691E-01   4   2   3   2
 -0.3185672146817436E-01   4   2   3   3
  0.7945460380257133E-02   4   2   4   1
  0.3156233077219603E-01   4   2   4   2
 -0.1755377818975839E+00   4   3   1   1
  0.1828973311032526E-02   4   3   2   1
 -0.1253149850615316E+00   4   3   2   2
 -0.5000065816909975E-02   4   3   3   1
 -0.3899213817992878E-01   4   3   3   2
 -0.7148722367979782E-01   4   3   3   3
  0.3927720401622231E-02   4   3   4   1
  0.2111846457441360E-01   4   3   4   2
  0.5416848804064689E-01   4   3   4   3
  0.4411274628317085E+00   4   4   1   1
 -0.1634336908005941E-02   4   4   2   1
  0.3950501407125175E+00   4   4   2   2
  0.4959687267121671E-02   4   4   3   1
  0.3509067888105268E-01   4   4   3   2
  0.3544861274401217E+00   4   4   3   3
 -0.4000367428313820E-02   4   4   4   1
 -0.2290440664097501E-01   4   4   4   2
 -0.4363741266744059E-01   4   4   4   3
  0.3172083046959924E+00   4   4   4   4
  0.1335134663647682E+00   5   1   1   1
 -0.1905045394471716E-01   5   1   2   1
  0.1371185126600594E-01   5   1   2   2
  0.8090619354501541E-02   5   1   3   1
  0.6152914445312531E-02   5   1   3   2
  0.2254205147595725E-02   5   1   3   3
 -0.5232943233379510E-02   5   1   4   1
 -0.4386495477481033E-02   5   1   4   2
 -0.4179738793855786E-02   5   1   4   3
  0.4150448664490888E-02   5   1   4   4
  0.1798946812041623E-01   5   1   5   1
 -0.1305022115625065E+00   5   2   1   1
  0.4284867717951788E-02   5   2   2   1
 -0.7149119376593180E-01   5   2   2   2
 -0.2226040520751362E-02   5   2   3   1
 -0.1733485972603441E-01   5   2   3   2
 -0.5730790118450418E-01   5   2   3   3
  0.1518919804226172E-02   5   2   4   1
  0.1845813063417701E-01   5   2   4   2
  0.2727275608388133E-01   5   2   4   3
 -0.2926645959459209E-01   5   2   4   4
 -0.3830927266011822E-02   5   2   5   1
  0.2621162626814277E-01   5   2   5   2
  0.1039798755807026E+00   5   3   1   1
 -0.6877513333871044E-02   5   3   2   1
  0.3407081575975200E-01   5   3   2   2
 -0.8125834082103779E-02   5   3   3   1
 -0.1469539728244378E-01   5   3   3   2
  0.6023046005587516E-01   5   3   3   3
  0.7283685793954657E-02   5   3   4   1
  0.6138194255161131E-02   5   3   4   2
 -0.1950384589238630E-01   5   3   4   3
  0.2293310582160855E-01   5   3   4   4
 -0.1876724115531168E-02   5   3   5   1
 -0.1753199551060360E-01   5   3   5   2
  0.3848219044464045E-01   5   3   5   3
 -0.1719366375845833E-01   5   4   1   1
  0.5364706791483900E-02   5   4   2   1
  0.3607398465029391E-01   5   4   2   2
  0.6845736447719019E-02   5   4   3   1
  0.2375937074892704E-01   5   4   3   2
 -0.1290991447405064E-01   5   4   3   3
 -0.6022207544136222E-02   5   4   4   1
 -0.1357510297850896E-02   5   4   4   2
 -0.1073763843922389E-01   5   4   4   3
  0.4173815646489336E-02   5   4   4   4
  0.1735878724653697E-02   5   4   5   1
  0.8985883738625584E-02   5   4   5   2
 -0.1578775288759792E-01   5   4   5   3
  0.3030437220827747E-01   5   4   5   4
  0.4910914197114805E+00   5   5   1   1
 -0.6883317524858884E-02   5   5   2   1
  0.4097163884815997E+00   5   5   2   2
 -0.2320547447272339E-02   5   5   3   1
  0.1797377176195356E-01   5   5   3   2
  0.3798325383645937E+00   5   5   3   3
  0.2628921678496626E-02   5   5   4   1
 -0.5960323998210670E-02   5   5   4   2
 -0.5826933218016092E-01   5   5   4   3
  0.3205289810242799E+00   5   5   4   4
  0.2133016793313375E-02   5   5   5   1
 -0.3265176652677815E-01   5   5   5   2
  0.4747061440866090E-01   5   5   5   3
  0.4484217039958160E-02   5   5   5   4
  0.3576248909163423E+00   5   5   5   5
 -0.4795462199948830E-17   6   1   1   1
  0.7080192221810478E-18   6   1   2   1
 -0.4033745383274653E-18   6   1   2   2
 -0.3088042453785292E-18   6   1   3   1
 -0.1731343768096633E-18   6   1   3   2
  0.2445219621042867E-19   6   1   3   3
  0.2054493694431281E-18   6   1   4   1
  0.1236112128552634E-18   6   1   4   2
  0.8891793378177437E-19   6   1   4   3
 -0.8261641595819575E-19   6   1   4   4
 -0.6628305575196213E-18   6   1   5   1
  0.1835490580001432E-18   6   1   5   2
  0.9027218017391704E-19   6   1   5   3
 -0.6463896820731254E-19   6   1   5   4
 -0.5204321391065069E-19   6   1   5   5
  0.2958020897747261E-03   6   1   6   1
  0.5827435662795921E-17   6   2   1   1
 -0.1029113120455850E-18   6   2   2   1
  0.4029939960242854E-17   6   2   2   2
  0.2258723862144625E-18   6   2   3   1
  0.1398156236827579E-17   6   2   3   2
  0.2907403066843227E-17   6   2   3   3
 -0.1717490425221690E-18   6   2   4   1
 -0.9549004639092361E-18   6   2   4   2
 -0.1435055305658730E-17   6   2   4   3
  0.1827872370404078E-17   6   2   4   4
  0.2678610949201773E-18   6   2   5   1
  0.2169116191471627E-18   6   2   5   2
  0.5360207695065518E-18   6   2   5   3
  0.3501050725931973E-18   6   2   5   4
  0.2169620652578414E-17   6   2   5   5
  0.1771751989149331E-02   6   2   6   1
  0.3444484329665874E-01   6   2   6   2
 -0.2822809520940667E-17   6   3   1   1
  0.3761914068842882E-18   6   3   2   1
  0.4995201677851761E-18   6   3   2   2
  0.5483145262667050E-18   6   3   3   1
  0.1610625278393902E-17   6   3   3   2
 -0.2295398049127053E-17   6   3   3   3
 -0.4837859695753045E-18   6   3   4   1
 -0.6721307751595123E-18   6   3   4   2
  0.1279770749859767E-18   6   3   4   3
 -0.6031912487814454E-18   6   3   4   4
  0.1610847925301712E-18   6   3   5   1
  0.4277514803076526E-18   6   3   5   2
 -0.1548992385399024E-17   6   3   5   3
  0.1064711303781498E-17   6   3   5   4
 -0.1666059162805912E-17   6   3   5   5
 -0.2531273276403897E-03   6   3   6   1
 -0.2307197232565402E-02   6   3   6   2
  0.8010200384959944E-02   6   3   6   3
  0.7980336830427399E-18   6   4   1   1
 -0.2587362310844479E-18   6   4   2   1
 -0.1396051873952024E-17   6   4   2   2
 -0.3567670207982460E-18   6   4   3   1
 -0.1148239233792061E-17   6   4   3   2
  0.4167113777060142E-18   6   4   3   3
  0.3224871791181217E-18   6   4   4   1
  0.5193328585670985E-18   6   4   4   2
  0.3565346716923922E-18   6   4   4   3
 -0.1269854797974947E-18   6   4   4   4
 -0.8177617760343456E-19   6   4   5   1
  0.3261391093591584E-18   6   4   5   2
  0.7000787712016472E-18   6   4   5   3
 -0.6939403229464985E-18   6   4   5   4
  0.6500244304889439E-18   6   4   5   5
  0.4566591945027060E-03   6   4   6   1
  0.1300740901363100E-01   6   4   6   2
 -0.2535317781731873E-02   6   4   6   3
  0.8745634914270333E-02   6   4   6   4
  0.5324052087694213E-18   6   5   1   1
  0.3552800020887037E-18   6   5   2   1
  0.3630269708503499E-17   6   5   2   2
  0.3381256711608310E-18   6   5   3   1
  0.1217888264732576E-17   6   5   3   2
  0.5240622671905371E-18   6   5   3   3
 -0.2986299768402503E-18   6   5   4   1
 -0.1629171193369925E-19   6   5   4   2
 -0.4929865326035121E-18   6   5   4   3
  0.1008888195854548E-17   6   5   4   4
  0.2986438030132590E-19   6   5   5   1
  0.4328702443023447E-18   6   5   5   2
 -0.6733103865614055E-18   6   5   5   3
  0.1349786796385370E-17   6   5   5   4
  0.1543116631259594E-17   6   5   5   5
 -0.2239573065212653E-03   6   5   6   1
  0.8691584120264577E-02   6   5   6   2
 -0.3219198070074444E-03   6   5   6   3
  0.6873139418012696E-02   6   5   6   4
  0.1021956798953502E-01   6   5   6   5
  0.5021510591925427E+00   6   6   1   1
  0.2095995501361434E-02   6   6   2   1
  0.4993975026114358E+00   6   6   2   2
  0.5573184390820877E-02   6   6   3   1
  0.4817156500282928E-01   6   6   3   2
  0.3995174110679198E+00   6   6   3   3
 -0.4378337938576379E-02   6   6   4   1
 -0.1039683474329833E-01   6   6   4   2
 -0.7252697269807298E-01   6   6   4   3
  0.3443992472599249E+00   6   6   4   4
  0.2649595012442801E-02   6   6   5   1
 -0.3260706201302088E-01   6   6   5   2
  0.3376226876951560E-01   6   6   5   3
  0.2776745269193576E-01   6   6   5   4
  0.3770348730848246E+00   6   6   5   5
 -0.1325759860404096E-18   6   6   6   1
 -0.3379891792781379E-18   6   6   6   2
 -0.1566783876453707E-19   6   6   6   3
 -0.1684113630442250E-17   6   6   6   4
  0.2569777167145841E-17   6   6   6   5
  0.4662267084586605E+00   6   6   6   6
  0.1007741759999530E-01   7   1   1   1
 -0.2121346544883718E-02   7   1   2   1
  0.5282739035623338E-04   7   1   2   2
 -0.2247363257819373E-02   7   1   3   1
 -0.5774559434889789E-04   7   1   3   2
  0.3516861309419252E-02   7   1   3   3
  0.2322852646378606E-02   7   1   4   1
 -0.7873475174302225E-03   7   1   4   2
 -0.1580874125226666E-02   7   1   4   3
  0.1550542448402086E-02   7   1   4   4
 -0.3504533122924312E-03   7   1   5   1
 -0.7136222931548668E-03   7   1   5   2
  0.2210357486155641E-02   7   1   5   3
 -0.1539060584761955E-02   7   1   5   4
  0.1866516755150261E-02   7   1   5   5
  0.2816985591796063E-19   7   1   6   1
  0.3912828643666605E-19   7   1   6   2
 -0.1205397373393157E-18   7   1   6   3
  0.4633429642753917E-19   7   1   6   4
 -0.1589241682206917E-18   7   1   6   5
 -0.1277921021479998E-02   7   1   6   6
  0.1560934841582199E-02   7   1   7   1
  0.4139827970264176E-02   7   2   1   1
  0.3376819748712675E-02   7   2   2   1
  0.3427559567224206E-01   7   2   2   2
  0.5284269869973068E-02   7   2   3   1
  0.2816431868083738E-01   7   2   3   2
  0.1645110189574274E-01   7   2   3   3
 -0.4954279338171914E-02   7   2   4   1
 -0.2136960456432573E-01   7   2   4   2
 -0.1159997092973171E-01   7   2   4   3
  0.1304474501926793E-01   7   2   4   4
  0.1238687496198466E-02   7   2   5   1
 -0.6360006362813433E-02   7   2   5   2
 -0.5917094147452114E-02   7   2   5   3
  0.7018031001008545E-02   7   2   5   4
  0.6010488424430092E-03   7   2   5   5
 -0.2265373742565043E-19   7   2   6   1
  0.2263859403533341E-18   7   2   6   2
  0.4590777048552927E-18   7   2   6   3
 -0.8165586948666474E-18   7   2   6   4
 -0.5523698205837938E-18   7   2   6   5
 -0.3903221902467010E-02   7   2   6   6
  0.1785035988296552E-02   7   2   7   1
  0.2938530743037426E-01   7   2   7   2
  0.2096199831654799E-01   7   3   1   1
  0.5300453440948209E-02   7   3   2   1
  0.5821620554450848E-01   7   3   2   2
  0.9314847321662125E-02   7   3   3   1
  0.3879477478817980E-01   7   3   3   2
 -0.1075962511827131E-01   7   3   3   3
 -0.7962440408037555E-02   7   3   4   1
 -0.1579045659647136E-01   7   3   4   2
 -0.2073345901691365E-01   7   3   4   3
  0.7592291153081139E-02   7   3   4   4
  0.3364911059882748E-02   7   3   5   1
 -0.3192745990571524E-02   7   3   5   2
 -0.2128586042384078E-01   7   3   5   3
  0.2071075824334390E-01   7   3   5   4
 -0.3021371566596172E-02   7   3   5   5
 -0.1306053632626044E-18   7   3   6   1
  0.3133126311546659E-18   7   3   6   2
  0.1775457322185122E-17   7   3   6   3
 -0.8097116291393339E-18   7   3   6   4
  0.1441611041399031E-17   7   3   6   5
  0.2779113315529198E-01   7   3   6   6
 -0.1846470482105340E-02   7   3   7   1
  0.6938319024276607E-02   7   3   7   2
  0.4444909017456276E-01   7   3   7   3
 -0.5396966530241028E-01   7   4   1   1
 -0.3217173379746828E-02   7   4   2   1
 -0.6703714257650183E-01   7   4   2   2
 -0.4876233088093646E-02   7   4   3   1
 -0.2101202539649160E-01   7   4   3   2
 -0.4215986700211309E-01   7   4   3   3
  0.4451258013834642E-02   7   4   4   1
  0.1628226846445583E-01   7   4   4   2
  0.1677053862901022E-01   7   4   4   3
 -0.2727814581736926E-01   7   4   4   4
 -0.1337546647261403E-02   7   4   5   1
  0.1364830642984688E-01   7   4   5   2
 -0.8464885144817413E-03   7   4   5   3
 -0.2993006096586218E-02   7   4   5   4
 -0.2243087770203643E-01   7   4   5   5
  0.1694446722077733E-19   7   4   6   1
 -0.1181237503863259E-17   7   4   6   2
 -0.1599456583391813E-18   7   4   6   3
  0.5533427004970287E-19   7   4   6   4
 -0.8152140116180844E-18   7   4   6   5
 -0.3933297285340351E-01   7   4   6   6
  0.4128460036773758E-03   7   4   7   1
 -0.8672512632189863E-02   7   4   7   2
 -0.1076926702812807E-01   7   4   7   3
  0.1766468262349791E-01   7   4   7   4
 -0.1920826466547292E-01   7   5   1   1
  0.1106089551651126E-02   7   5   2   1
 -0.9239835122743628E-02   7   5   2   2
  0.1988184464900625E-02   7   5   3   1
  0.1910666505021859E-02   7   5   3   2
 -0.2922400903658702E-01   7   5   3   3
 -0.1504033764826282E-02   7   5   4   1
  0.6672455522635385E-02   7   5   4   2
  0.3827416870670154E-02   7   5   4   3
 -0.1007180881022084E-01   7   5   4   4
  0.1042493761553907E-02   7   5   5   1
  0.8289866450282027E-02   7   5   5   2
 -0.1155385965278542E-01   7   5   5   3
  0.1161015665691584E-01   7   5   5   4
 -0.1053462952895089E-01   7   5   5   5
 -0.1176321654624073E-18   7   5   6   1
 -0.1279623036402652E-17   7   5   6   2
  0.1023301441738074E-17   7   5   6   3
 -0.7579884981637103E-18   7   5   6   4
  0.3519386771645035E-18   7   5   6   5
 -0.7505266627427608E-03   7   5   6   6
 -0.2074181475428189E-02   7   5   7   1
 -0.8103066610594746E-02   7   5   7   2
  0.1297784880068205E-01   7   5   7   3
  0.4106964897393543E-02   7   5   7   4
  0.1521742546682672E-01   7   5   7   5
  0.1590273908849672E-17   7   6   1   1
 -0.7781496126503245E-19   7   6   2   1
  0.3810097408268590E-18   7   6   2   2
 -0.1313687577750794E-18   7   6   3   1
 -0.2228331303003399E-18   7   6   3   2
  0.2229548136734726E-17   7   6   3   3
  0.8540627692493586E-19   7   6   4   1
 -0.7653636355378786E-18   7   6   4   2
 -0.1566489671009908E-18   7   6   4   3
  0.6080264079119921E-18   7   6   4   4
 -0.1069828479569125E-18   7   6   5   1
 -0.1334075659931079E-17   7   6   5   2
  0.1139309872602196E-17   7   6   5   3
 -0.1234636108178978E-17   7   6   5   4
  0.5377574908696781E-18   7   6   5   5
 -0.9367240310138537E-03   7   6   6   1
 -0.1267816196328034E-01   7   6   6   2
  0.6112897193185390E-02   7   6   6   3
 -0.5918689657302190E-02   7   6   6   4
 -0.1227485840215229E-02   7   6   6   5
  0.2078151313030161E-18   7   6   6   6
  0.1465950566536610E-18   7   6   7   1
  0.8913511870543887E-18   7   6   7   2
 -0.1203013440440707E-17   7   6   7   3
 -0.1480867153444572E-18   7   6   7   4
 -0.4506369144947657E-18   7   6   7   5
  0.1350430081455115E-01   7   6   7   6
  0.5159462965315773E+00   7   7   1   1
 -0.3419683849702078E-03   7   7   2   1
  0.4751122329572683E+00   7   7   2   2
  0.2273933062019843E-02   7   7   3   1
  0.3653848540043055E-01   7   7   3   2
  0.4287929097392558E+00   7   7   3   3
 -0.1922177302432299E-02   7   7   4   1
 -0.2409556627226733E-01   7   7   4   2
 -0.6892653408540542E-01   7   7   4   3
  0.3474776231404780E+00   7   7   4   4
  0.1295938057145535E-02   7   7   5   1
 -0.4855679488210896E-01   7   7   5   2
  0.5046613797210142E-01   7   7   5   3
  0.4315155321761577E-02   7   7   5   4
  0.3747643458678752E+00   7   7   5   5
  0.4598778325770611E-19   7   7   6   1
  0.2832645750948240E-17   7   7   6   2
 -0.1949251280533267E-17   7   7   6   3
  0.4916523415999053E-19   7   7   6   4
  0.1444332154711902E-17   7   7   6   5
  0.4145781150282171E+00   7   7   6   6
  0.1303015234860400E-02   7   7   7   1
  0.1072620702067961E-01   7   7   7   2
 -0.2841518362124540E-02   7   7   7   3
 -0.4327268507270532E-01   7   7   7   4
 -0.2040271405717620E-01   7   7   7   5
  0.1130518791829983E-17   7   7   7   6
  0.4322686591938188E+00   7   7   7   7
  0.5809574963608409E+00   8   8   1   1
 -0.7152964571149902E-03   8   8   2   1
  0.5275259658576126E+00   8   8   2   2
  0.7891033764136154E-02   8   8   3   1
  0.6151244318867932E-01   8   8   3   2
  0.4172247373665174E+00   8   8   3   3
 -0.5991314154178279E-02   8   8   4   1
 -0.2337362175097171E-01   8   8   4   2
 -0.8678414485413452E-01   8   8   4   3
  0.3542192344652927E+00   8   8   4   4
  0.5869124296432160E-02   8   8   5   1
 -0.4656668025362487E-01   8   8   5   2
  0.3978936615922279E-01   8   8   5   3
  0.2357538676669158E-01   8   8   5   4
  0.3857315981403173E+00   8   8   5   5
  0.1669552309506625E-02   8   8   6   1
  0.2561914780304076E-01   8   8   6   2
 -0.2897578340896274E-02   8   8   6   3
  0.1005501616077228E-01   8   8   6   4
  0.6202758984634002E-02   8   8   6   5
  0.4557051073842347E+00   8   8   6   6
 -0.9749218512928870E-03   8   8   7   1
  0.2319483770835462E-02   8   8   7   2
  0.2998022783342644E-01   8   8   7   3
 -0.4286650007153980E-01   8   8   7   4
 -0.2184470104723668E-02   8   8   7   5
 -0.1026982305933367E-01   8   8   7   6
  0.4252953630107388E+00   8   8   7   7
  0.4889292174982982E+00   8   8   8   8
 -0.1973022020731305E+00   9   8   1   1
  0.2601131589219262E-02   9   8   2   1
 -0.1314691739282389E+00   9   8   2   2
 -0.5139368061765619E-02   9   8   3   1
 -0.3541898500408450E-01   9   8   3   2
 -0.8181999989791799E-01   9   8   3   3
  0.3780787668197021E-02   9   8   4   1
  0.2360759624696816E-01   9   8   4   2
  0.4247378903712425E-01   9   8   4   3
 -0.5040916337528446E-01   9   8   4   4
 -0.5051278666383517E-02   9   8   5   1
  0.3387190589233011E-01   9   8   5   2
 -0.2022631102987420E-01   9   8   5   3
  0.2979351994658042E-02   9   8   5   4
 -0.5454452837244754E-01   9   8   5   5
 -0.9604505886030960E-03   9   8   6   1
 -0.4485164414583027E-02   9   8   6   2
 -0.1735895851301968E-02   9   8   6   3
  0.1418382150148164E-02   9   8   6   4
  0.4932326507135433E-02   9   8   6   5
 -0.7560740777830674E-01   9   8   6   6
  0.2676237362657652E-03   9   8   7   1
 -0.4315187021099010E-02   9   8   7   2
 -0.1449519874154282E-01   9   8   7   3
  0.2081473589972106E-01   9   8   7   4
  0.4805544022394331E-02   9   8   7   5
  0.2272055132792793E-02   9   8   7   6
 -0.7720702010897401E-01   9   8   7   7
 -0.9722955211890474E-01   9   8   8   8
  0.6359704679689343E-01   9   8   9   8
  0.4862314910514796E+00   9   9   1   1
 -0.2966232482641229E-02   9   9   2   1
  0.4204917109563398E+00   9   9   2   2
  0.5974232049500077E-02   9   9   3   1
  0.4073087909230826E-01   9   9   3   2
  0.3499651118549785E+00   9   9   3   3
 -0.4359250076993774E-02   9   9   4   1
 -0.1675661982451115E-01   9   9   4   2
 -0.6042311976287171E-01   9   9   4   3
  0.3098196441017659E+00   9   9   4   4
  0.5978213869735766E-02   9   9   5   1
 -0.3067730840392469E-01   9   9   5   2
  0.2540584244301436E-01   9   9   5   3
  0.1853616839704725E-01   9   9   5   4
  0.3344166979841330E+00   9   9   5   5
  0.1167891231641770E-02   9   9   6   1
  0.1491841623927685E-01   9   9   6   2
 -0.2798299676352589E-02   9   9   6   3
  0.6633050554976125E-02   9   9   6   4
  0.5954879188740679E-02   9   9   6   5
  0.3692170653106396E+00   9   9   6   6
 -0.4549752306307886E-03   9   9   7   1
  0.3264420307145355E-02   9   9   7   2
  0.1854592825859852E-01   9   9   7   3
 -0.2583304233583600E-01   9   9   7   4
  0.1238589251238320E-02   9   9   7   5
 -0.5203633537515877E-02   9   9   7   6
  0.3534555611640936E+00   9   9   7   7
  0.3959249636956139E+00   9   9   8   8
 -0.5829793043508857E-01   9   9   9   8
  0.3493381600192018E+00   9   9   9   9
 -0.1331517526927631E-01  10   8   1   1
  0.6445734256372754E-02  10   8   2   1
  0.5571488180032876E-01  10   8   2   2
  0.8814123162134369E-02  10   8   3   1
  0.4145542994445103E-01  10   8   3   2
 -0.1220113150354103E-01  10   8   3   3
 -0.7648063659287803E-02  10   8   4   1
 -0.1104707306740346E-01  10   8   4   2
 -0.1145797813903435E-01  10   8   4   3
  0.9118851235842924E-02  10   8   4   4
  0.2319630987438391E-02  10   8   5   1
  0.5963772171016374E-02  10   8   5   2
 -0.1989125036871160E-01  10   8   5   3
  0.2744966488728363E-01  10   8   5   4
 -0.2651852793976710E-02  10   8   5   5
 -0.1245044223875739E-03  10   8   6   1
  0.7614497442708487E-02  10   8   6   2
  0.6569755471681316E-02  10   8   6   3
  0.2479696436367964E-02  10   8   6   4
  0.4922603431175497E-02  10   8   6   5
  0.2674272742758110E-01  10   8   6   6
 -0.7712582201700562E-03  10   8   7   1
  0.1749764387019231E-01  10   8   7   2
  0.2509769890212690E-01  10   8   7   3
 -0.5379262571734558E-02  10   8   7   4
  0.7446363973223291E-02  10   8   7   5
  0.3223073731024340E-02  10   8   7   6
  0.1413024749473991E-02  10   8   7   7
  0.3028535210092732E-01  10   8   8   8
 -0.7411410408549174E-02  10   8   9   8
  0.1626474513165773E-01  10   8   9   9
  0.5507104590847043E-01  10   8  10   8
  0.2285328263287123E-01  10   9   1   1
 -0.4569665115814641E-02  10   9   2   1
 -0.2155933084565970E-01  10   9   2   2
 -0.4259962146862517E-02  10   9   3   1
 -0.1547840169596347E-01  10   9   3   2
 -0.3859612241253997E-02  10   9   3   3
  0.4031847439342455E-02  10   9   4   1
  0.1007353233235980E-01  10   9   4   2
  0.9916910618175401E-04  10   9   4   3
 -0.4897533728721174E-02  10   9   4   4
 -0.1678676954065443E-03  10   9   5   1
  0.2478374770777184E-03  10   9   5   2
  0.1036377161874311E-01  10   9   5   3
 -0.4558696877271394E-02  10   9   5   4
  0.5159048326709373E-02  10   9   5   5
  0.1807731963886351E-03  10   9   6   1
 -0.1924500129769304E-02  10   9   6   2
 -0.1551928359824771E-02  10   9   6   3
  0.1356373307753285E-02  10   9   6   4
 -0.2957627761651742E-03  10   9   6   5
 -0.7231110200501098E-02  10   9   6   6
  0.2228995614850654E-03  10   9   7   1
 -0.9768898030294369E-02  10   9   7   2
 -0.7693426414439101E-02  10   9   7   3
  0.6462288854132973E-02  10   9   7   4
  0.2413685465759090E-02  10   9   7   5
 -0.9743915972933721E-03  10   9   7   6
 -0.4474404656496399E-02  10   9   7   7
 -0.6276995651441201E-02  10   9   8   8
  0.3263626654436376E-02  10   9   9   8
 -0.1201673331477972E-03  10   9   9   9
 -0.1529766130684800E-01  10   9  10   8
  0.1272847049822776E-01  10   9  10   9
  0.5401645821913248E+00  10  10   1   1
 -0.5890662915316418E-03  10  10   2   1
  0.5060899159548649E+00  10  10   2   2
  0.2413915921921353E-02  10  10   3   1
  0.4417494371280036E-01  10  10   3   2
  0.4382288687191255E+00  10  10   3   3
 -0.1789618260727800E-02  10  10   4   1
 -0.2115095652948148E-01  10  10   4   2
 -0.7607020080809782E-01  10  10   4   3
  0.3551993528160275E+00  10  10   4   4
  0.1679557510928631E-02  10  10   5   1
 -0.4752525861942059E-01  10  10   5   2
  0.5122976282035796E-01  10  10   5   3
  0.9239534607263289E-02  10  10   5   4
  0.3881735973456863E+00  10  10   5   5
  0.1208442789709092E-02  10  10   6   1
  0.2279646728202482E-01  10  10   6   2
 -0.4481513858010914E-02  10  10   6   3
  0.7907821599573990E-02  10  10   6   4
  0.4379126022914697E-02  10  10   6   5
  0.4440472130040795E+00  10  10   6   6
  0.9223732543346408E-03  10  10   7   1
  0.1021768405439838E-01  10  10   7   2
  0.1069118514897413E-01  10  10   7   3
 -0.4262884603674505E-01  10  10   7   4
 -0.1419509441587474E-01  10  10   7   5
 -0.6257945417814014E-02  10  10   7   6
  0.4325361892754393E+00  10  10   7   7
  0.4701094608695646E+00  10  10   8   8
 -0.8760425591280835E-01  10  10   9   8
  0.3783890241739786E+00  10  10   9   9
  0.1460447187010286E-01  10  10  10   8
 -0.9447145085807865E-02  10  10  10   9
  0.4867148269491418E+00  10  10  10  10
  0.5809574963608406E+00  11  11   1   1
 -0.7152964571149737E-03  11  11   2   1
  0.5275259658576124E+00  11  11   2   2
  0.7891033764136166E-02  11  11   3   1
  0.6151244318867928E-01  11  11   3   2
  0.4172247373665171E+00  11  11   3   3
 -0.5991314154178272E-02  11  11   4   1
 -0.2337362175097177E-01  11  11   4   2
 -0.8678414485413438E-01  11  11   4   3
  0.3542192344652922E+00  11  11   4   4
  0.5869124296432021E-02  11  11   5   1
 -0.4656668025362498E-01  11  11   5   2
  0.3978936615922268E-01  11  11   5   3
  0.2357538676669169E-01  11  11   5   4
  0.3857315981403154E+00  11  11   5   5
 -0.1669552309506623E-02  11  11   6   1
 -0.2561914780304075E-01  11  11   6   2
  0.2897578340896277E-02  11  11   6   3
 -0.1005501616077230E-01  11  11   6   4
 -0.6202758984634032E-02  11  11   6   5
  0.4557051073842345E+00  11  11   6   6
 -0.9749218512929980E-03  11  11   7   1
  0.2319483770835129E-02  11  11   7   2
  0.2998022783342630E-01  11  11   7   3
 -0.4286650007153958E-01  11  11   7   4
 -0.2184470104725555E-02  11  11   7   5
  0.1026982305933364E-01  11  11   7   6
  0.4252953630107378E+00  11  11   7   7
  0.4488041271686652E+00  11  11   8   8
 -0.9024720459272390E-01  11  11   9   8
  0.3695076051849716E+00  11  11   9   9
  0.2192504821215649E-01  11  11  10   8
 -0.5478448478008227E-02  11  11  10   9
  0.4359541365356997E+00  11  11  10  10
  0.4889292174982977E+00  11  11  11  11
 -0.1973022020731301E+00  12  11   1   1
  0.2601131589219252E-02  12  11   2   1
 -0.1314691739282389E+00  12  11   2   2
 -0.5139368061765620E-02  12  11   3   1
 -0.3541898500408454E-01  12  11   3   2
 -0.8181999989791758E-01  12  11   3   3
  0.3780787668196985E-02  12  11   4   1
  0.2360759624696835E-01  12  11   4   2
  0.4247378903712450E-01  12  11   4   3
 -0.5040916337528448E-01  12  11   4   4
 -0.5051278666383482E-02  12  11   5   1
  0.3387190589233127E-01  12  11   5   2
 -0.2022631102987431E-01  12  11   5   3
  0.2979351994657084E-02  12  11   5   4
 -0.5454452837245147E-01  12  11   5   5
  0.9604505886030953E-03  12  11   6   1
  0.4485164414583023E-02  12  11   6   2
  0.1735895851301975E-02  12  11   6   3
 -0.1418382150148171E-02  12  11   6   4
 -0.4932326507135412E-02  12  11   6   5
 -0.7560740777830652E-01  12  11   6   6
  0.2676237362657791E-03  12  11   7   1
 -0.4315187021098038E-02  12  11   7   2
 -0.1449519874154265E-01  12  11   7   3
  0.2081473589972028E-01  12  11   7   4
  0.4805544022390695E-02  12  11   7   5
 -0.2272055132792776E-02  12  11   7   6
 -0.7720702010897648E-01  12  11   7   7
 -0.9024720459272377E-01  12  11   8   8
  0.4999208172304693E-01  12  11   9   8
 -0.5976462378624230E-01  12  11   9   9
 -0.6748161279058241E-02  12  11  10   8
  0.2029154846328163E-02  12  11  10   9
 -0.8215906113701851E-01  12  11  10  10
 -0.9722955211890429E-01  12  11  11  11
  0.6359704679689319E-01  12  11  12  11
  0.4862314910514791E+00  12  12   1   1
 -0.2966232482641179E-02  12  12   2   1
  0.4204917109563395E+00  12  12   2   2
  0.5974232049500135E-02  12  12   3   1
  0.4073087909230838E-01  12  12   3   2
  0.3499651118549783E+00  12  12   3   3
 -0.4359250076993892E-02  12  12   4   1
 -0.1675661982451143E-01  12  12   4   2
 -0.6042311976287221E-01  12  12   4   3
  0.3098196441017672E+00  12  12   4   4
  0.5978213869735738E-02  12  12   5   1
 -0.3067730840392435E-01  12  12   5   2
  0.2540584244301430E-01  12  12   5   3
  0.1853616839704775E-01  12  12   5   4
  0.3344166979841294E+00  12  12   5   5
 -0.1167891231641769E-02  12  12   6   1
 -0.1491841623927684E-01  12  12   6   2
  0.2798299676352579E-02  12  12   6   3
 -0.6633050554976104E-02  12  12   6   4
 -0.5954879188740627E-02  12  12   6   5
  0.3692170653106394E+00  12  12   6   6
 -0.4549752306308996E-03  12  12   7   1
  0.3264420307145244E-02  12  12   7   2
  0.1854592825859799E-01  12  12   7   3
 -0.2583304233583406E-01  12  12   7   4
  0.1238589251237210E-02  12  12   7   5
  0.5203633537515892E-02  12  12   7   6
  0.3534555611640931E+00  12  12   7   7
  0.3695076051849714E+00  12  12   8   8
 -0.5976462378624312E-01  12  12   9   8
  0.3215228770584342E+00  12  12   9   9
  0.1227262498481563E-01  12  12  10   8
 -0.1589947105289480E-02  12  12  10   9
  0.3585117169773068E+00  12  12  10  10
  0.3959249636956135E+00  12  12  11  11
 -0.5829793043508846E-01  12  12  12  11
  0.3493381600192015E+00  12  12  12  12
 -0.1331517526927637E-01  13  11   1   1
  0.6445734256372752E-02  13  11   2   1
  0.5571488180032855E-01  13  11   2   2
  0.8814123162134363E-02  13  11   3   1
  0.4145542994445097E-01  13  11   3   2
 -0.1220113150354098E-01  13  11   3   3
 -0.7648063659287797E-02  13  11   4   1
 -0.1104707306740338E-01  13  11   4   2
 -0.1145797813903437E-01  13  11   4   3