 &FCI NORB= 26,NELEC=  8,MS2= 0,
  ORBSYM=1,1,1,1,1,1,2,2,2,3,3,3,4,5,5,5,5,5,5,6,6,6,7,7,7,8,
  ISYM=1,
  OCC=  1,  1,  1,  0,  1,  0,  0,  0,
  CLOSED=  1,  1,  1,  0,  1,  0,  0,  0,
  FOCK=    -11.371912772020,    -11.370065953326,     -1.050851950380,     -0.106629762115,      0.598287057536,
       0.727222204342,      1.221101300413,      2.024305213920,     -0.448142194754,      0.634829989991,      1.349917933548,     -0.448142194754,      0.634829989991,      1.349917933548,      1.221101300413,     -0.523665777459,      0.392291916659,      0.905172492252,      1.232038538707,      1.617361754652,      2.343385512790,      0.154934131643,      0.762363877698,      2.081214142716,      0.154934131643,      0.762363877698,
 /
  0.6373639335423780E+00   1   1   1   1
  0.1191741614419264E+00   2   1   1   1
  0.6724198063380907E-01   2   1   2   1
  0.4678633725523390E+00   2   2   1   1
  0.3168452706507691E-01   2   2   2   1
  0.4483760098072096E+00   2   2   2   2
 -0.6168687072215278E-01   3   1   1   1
 -0.3629101008578033E-01   3   1   2   1
 -0.3107133013519280E-01   3   1   2   2
  0.3128227834648483E-01   3   1   3   1
 -0.1246872881263126E+00   3   2   1   1
 -0.3898244748464148E-01   3   2   2   1
 -0.7274060065600343E-01   3   2   2   2
  0.2096386857710994E-01   3   2   3   1
  0.5515985893779730E-01   3   2   3   2
  0.3947604744535201E+00   3   3   1   1
  0.3522893054136839E-01   3   3   2   1
  0.3557753796798714E+00   3   3   2   2
 -0.2299707467848361E-01   3   3   3   1
 -0.4516151603681359E-01   3   3   3   2
  0.3185628514333621E+00   3   3   3   3
 -0.7183541759831029E-01   4   1   1   1
 -0.1733734003071255E-01   4   1   2   1
 -0.5843109195235702E-01   4   1   2   2
  0.1855166590210928E-01   4   1   3   1
  0.2843033164677444E-01   4   1   3   2
 -0.3073247630865463E-01   4   1   3   3
  0.2724844548414791E-01   4   1   4   1
  0.3137064436427301E-01   4   2   1   1
 -0.1596906191473052E-01   4   2   2   1
  0.5784542899197952E-01   4   2   2   2
  0.7331145780996995E-02   4   2   3   1
 -0.1887628643859510E-01   4   2   3   2
  0.2242552669475487E-01   4   2   3   3
 -0.1687706081494925E-01   4   2   4   1
  0.3730579966774741E-01   4   2   4   2
  0.3725000190915075E-01   4   3   1   1
  0.2538465835868531E-01   4   3   2   1
 -0.1216475560171580E-01   4   3   2   2
 -0.2247725159528024E-02   4   3   3   1
 -0.1083353108810554E-01   4   3   3   2
  0.4426360696534678E-02   4   3   3   3
  0.8796531317422550E-02   4   3   4   1
 -0.1580342047270022E-01   4   3   4   2
  0.3075032148344225E-01   4   3   4   3
  0.4077789877141942E+00   4   4   1   1
  0.1836827353898602E-01   4   4   2   1
  0.3777352074739820E+00   4   4   2   2
 -0.5505633926121495E-02   4   4   3   1
 -0.5876005916955976E-01   4   4   3   2
  0.3207672630987469E+00   4   4   3   3
 -0.3282475048492217E-01   4   4   4   1
  0.4530406516778290E-01   4   4   4   2
  0.5396770435675435E-02   4   4   4   3
  0.3554294563140640E+00   4   4   4   4
 -0.1411994308939844E-16   5   1   1   1
 -0.5262530451556721E-17   5   1   2   1
 -0.1019539646310865E-16   5   1   2   2
  0.4098373914528867E-17   5   1   3   1
  0.5771798313278151E-17   5   1   3   2
 -0.6639571970800738E-17   5   1   3   3
  0.4429533283413312E-18   5   1   4   1
 -0.1327169447139679E-17   5   1   4   2
 -0.1393785797248730E-17   5   1   4   3
 -0.7351447665918387E-17   5   1   4   4
  0.3388669539784750E-01   5   1   5   1
 -0.2045607511789616E-17   5   2   1   1
 -0.4980696578702958E-17   5   2   2   1
  0.5561032005163342E-17   5   2   2   2
  0.2662220033811827E-17   5   2   3   1
 -0.2218199528857648E-18   5   2   3   2
  0.1218330204985039E-17   5   2   3   3
 -0.7200260565493036E-18   5   2   4   1
  0.4095429735524997E-17   5   2   4   2
 -0.2720265315592799E-17   5   2   4   3
  0.4437640152950150E-17   5   2   4   4
 -0.2166217337701465E-02   5   2   5   1
  0.8033005160848775E-02   5   2   5   2
  0.6486970596122697E-17   5   3   1   1
  0.4570166767539848E-17   5   3   2   1
 -0.5028561089661475E-18   5   3   2   2
 -0.1941283882745473E-17   5   3   3   1
 -0.1829466571742097E-17   5   3   3   2
  0.9844662288581188E-18   5   3   3   3
 -0.1276650854578179E-17   5   3   4   1
 -0.1940293630695170E-17   5   3   4   2
  0.2436918988231389E-17   5   3   4   3
 -0.1244815721749971E-17   5   3   4   4
  0.1271252051490574E-01   5   3   5   1
 -0.2356046007322731E-02   5   3   5   2
  0.8430388825436242E-02   5   3   5   3
 -0.9642063348080755E-17   5   4   1   1
 -0.2932652948410565E-17   5   4   2   1
 -0.1994096112563667E-17   5   4   2   2
 -0.1136832343743870E-18   5   4   3   1
  0.1345765713652217E-17   5   4   3   2
 -0.2902622097278557E-17   5   4   3   3
 -0.1195445219263510E-17   5   4   4   1
  0.1629788388574764E-17   5   4   4   2
 -0.3675682064540326E-17   5   4   4   3
 -0.5005201859702492E-17   5   4   4   4
  0.8648886114534418E-02   5   4   5   1
 -0.1633016722640035E-03   5   4   5   2
  0.6656144450237593E-02   5   4   5   3
  0.1022377178514514E-01   5   4   5   4
  0.4942436338544716E+00   5   5   1   1
  0.4764877335662568E-01   5   5   2   1
  0.3981670227024668E+00   5   5   2   2
 -0.9803577583743395E-02   5   5   3   1
 -0.7247491759188440E-01   5   5   3   2
  0.3441475849649653E+00   5   5   3   3
 -0.3307825200605052E-01   5   5   4   1
  0.3246566658495564E-01   5   5   4   2
  0.2776140268256527E-01   5   5   4   3
  0.3755329055049580E+00   5   5   4   4
 -0.2176179875664258E-17   5   5   5   1
  0.9333007194611948E-18   5   5   5   2
  0.4939287886834664E-17   5   5   5   3
 -0.7844532920999560E-17   5   5   5   4
  0.4625430151610481E+00   5   5   5   5
  0.3197172291956828E-01   6   1   1   1
  0.2753213252748971E-01   6   1   2   1
  0.1585687773928384E-01   6   1   2   2
 -0.2066862007230635E-01   6   1   3   1
 -0.1095454634646187E-01   6   1   3   2
  0.1263997726175281E-01   6   1   3   3
 -0.5938902597483319E-02   6   1   4   1
 -0.6272642232840214E-02   6   1   4   2
  0.7621127374886388E-02   6   1   4   3
  0.5111122855819586E-03   6   1   4   4
 -0.1967187640349639E-17   6   1   5   1
 -0.1839250144366726E-17   6   1   5   2
  0.2422175409779539E-17   6   1   5   3
  0.1523582579574946E-17   6   1   5   4
 -0.4436561530352979E-02   6   1   5   5
  0.2971819899810582E-01   6   1   6   1
  0.5598213531096202E-01   6   2   1   1
  0.3913970509988638E-01   6   2   2   1
 -0.1159039985057547E-01   6   2   2   2
 -0.1553057421617849E-01   6   2   3   1
 -0.1997121144319274E-01   6   2   3   2
  0.6982441257991591E-02   6   2   3   3
 -0.2712252572696874E-02   6   2   4   1
 -0.2188267384273654E-01   6   2   4   2
  0.2159576142347435E-01   6   2   4   3
 -0.2918247944671073E-02   6   2   4   4
 -0.1840424389851424E-17   6   2   5   1
 -0.4686824715836641E-17   6   2   5   2
  0.2939541955907976E-17   6   2   5   3
 -0.3641686086840819E-17   6   2   5   4
  0.2690656773906558E-01   6   2   5   5
  0.6914997281774013E-02   6   2   6   1
  0.4440391228117128E-01   6   2   6   2
 -0.6324381796411142E-01   6   3   1   1
 -0.2031174743187026E-01   6   3   2   1
 -0.3992800650421510E-01   6   3   2   2
  0.1575454981368355E-01   6   3   3   1
  0.1591887769367387E-01   6   3   3   2
 -0.2625338310756392E-01   6   3   3   3
  0.1328559891960431E-01   6   3   4   1
  0.3292114373523447E-03   6   3   4   2
 -0.3424851253748390E-02   6   3   4   3
 -0.2086523623201110E-01   6   3   4   4
  0.3669811792014003E-17   6   3   5   1
  0.8231179910806875E-18   6   3   5   2
 -0.6113049342753432E-18   6   3   5   3
  0.2082021640249851E-17   6   3   5   4
 -0.3729230395494995E-01   6   3   5   5
 -0.8326827649911897E-02   6   3   6   1
 -0.1067959998856190E-01   6   3   6   2
  0.1698926914508715E-01   6   3   6   3
 -0.8757768596399186E-02   6   4   1   1
  0.2265992962001306E-02   6   4   2   1
 -0.2895110185210653E-01   6   4   2   2
  0.6652230946122814E-02   6   4   3   1
  0.4152002406211226E-02   6   4   3   2
 -0.1018142823665044E-01   6   4   3   3
  0.8505712460694804E-02   6   4   4   1
 -0.1105129708383682E-01   6   4   4   2
  0.1154385348541529E-01   6   4   4   3
 -0.9915761895021325E-02   6   4   4   4
  0.3604312207018614E-17   6   4   5   1
 -0.2390753362669758E-17   6   4   5   2
  0.2043253500200047E-17   6   4   5   3
 -0.9706218466193603E-18   6   4   5   4
 -0.4587249113641591E-03   6   4   5   5
 -0.8298520228889664E-02   6   4   6   1
  0.1289197357900310E-01   6   4   6   2
  0.3950350278808309E-02   6   4   6   3
  0.1524759873694691E-01   6   4   6   4
 -0.3327682666800582E-17   6   5   1   1
 -0.5774458247972892E-18   6   5   2   1
 -0.5910338414170810E-17   6   5   2   2
  0.2393389608445839E-17   6   5   3   1
  0.1012028711212280E-17   6   5   3   2
 -0.2123887842232451E-17   6   5   3   3
  0.3791011657477218E-17   6   5   4   1
 -0.2572937747380479E-17   6   5   4   2
  0.2723501865373003E-17   6   5   4   3
 -0.1527627418144001E-17   6   5   4   4
 -0.1248794086531127E-01   6   5   5   1
  0.6103986375248741E-02   6   5   5   2
 -0.5771103056282413E-02   6   5   5   3
 -0.1122677004807908E-02   6   5   5   4
 -0.1013787767093825E-17   6   5   5   5
 -0.2466583324604624E-17   6   5   6   1
  0.2266684958382984E-17   6   5   6   2
  0.7544603245318284E-18   6   5   6   3
  0.9039641558829959E-18   6   5   6   4
  0.1363923620199510E-01   6   5   6   5
  0.4759471510523798E+00   6   6   1   1
  0.3752251912245790E-01   6   6   2   1
  0.4293155414570495E+00   6   6   2   2
 -0.2398518847161407E-01   6   6   3   1
 -0.7111235958795023E-01   6   6   3   2
  0.3495573024946833E+00   6   6   3   3
 -0.5008816158465446E-01   6   6   4   1
  0.4866466163230798E-01   6   6   4   2
  0.5351295609398399E-02   6   6   4   3
  0.3746036789402631E+00   6   6   4   4
 -0.9466408946966269E-17   6   6   5   1
  0.4586599113268734E-17   6   6   5   2
  0.8610881196325394E-18   6   6   5   3
 -0.4605592130166587E-17   6   6   5   4
  0.4152503804102834E+00   6   6   5   5
  0.1059026467373037E-01   6   6   6   1
 -0.2392906188603161E-02   6   6   6   2
 -0.4177674583916280E-01   6   6   6   3
 -0.2001996832559255E-01   6   6   6   4
 -0.3607069862968799E-17   6   6   6   5
  0.4345564308183678E+00   6   6   6   6
  0.5200372268941349E+00   7   7   1   1
  0.6033285622736193E-01   7   7   2   1
  0.4145920477135429E+00   7   7   2   2
 -0.2207534837194050E-01   7   7   3   1
 -0.8641396755227765E-01   7   7   3   2
  0.3537304485605366E+00   7   7   3   3
 -0.4668602066392447E-01   7   7   4   1
  0.3777662227108614E-01   7   7   4   2
  0.2402779451924908E-01   7   7   4   3
  0.3834387830193431E+00   7   7   4   4
  0.2516284756010571E-01   7   7   5   1
 -0.2742423258311229E-02   7   7   5   2
  0.9831643559651521E-02   7   7   5   3
  0.6217494923179884E-02   7   7   5   4
  0.4513448182771998E+00   7   7   5   5
  0.1201934297242691E-02   7   7   6   1
  0.2857993169910231E-01   7   7   6   2
 -0.4010362758108083E-01   7   7   6   3
 -0.1682909485032580E-02   7   7   6   4
 -0.1008484517272713E-01   7   7   6   5
  0.4251940119061148E+00   7   7   6   6
  0.4827706727715377E+00   7   7   7   7
 -0.1288275754680430E+00   8   7   1   1
 -0.3439963940942996E-01   8   7   2   1
 -0.8197024782580266E-01   8   7   2   2
  0.2278438505000115E-01   8   7   3   1
  0.4295233366301246E-01   8   7   3   2
 -0.5135161693201208E-01   8   7   3   3
  0.3448561674462444E-01   8   7   4   1
 -0.1935589231862751E-01   8   7   4   2
  0.2734842111901961E-02   8   7   4   3
 -0.5438176735225857E-01   8   7   4   4
 -0.4340871461543909E-02   8   7   5   1
 -0.1608629189106805E-02   8   7   5   2
  0.1316941831905336E-02   8   7   5   3
  0.4969102779352956E-02   8   7   5   4
 -0.7501547464251695E-01   8   7   5   5
 -0.3011865227137450E-02   8   7   6   1
 -0.1338302696799695E-01   8   7   6   2
  0.1959840890090086E-01   8   7   6   3
  0.4604205112518522E-02   8   7   6   4
  0.2369629804712132E-02   8   7   6   5
 -0.7855213031526434E-01   8   7   6   6
 -0.9560133045377034E-01   8   7   7   7
  0.6333864267070957E-01   8   7   8   7
  0.4184740962678701E+00   8   8   1   1
  0.4051444417560000E-01   8   8   2   1
  0.3500686190230943E+00   8   8   2   2
 -0.1622163924296752E-01   8   8   3   1
 -0.6122290393273422E-01   8   8   3   2
  0.3106427109539281E+00   8   8   3   3
 -0.3163704425336455E-01   8   8   4   1
  0.2477799645803580E-01   8   8   4   2
  0.1864324729288841E-01   8   8   4   3
  0.3342760582233175E+00   8   8   4   4
  0.1479723138174460E-01   8   8   5   1
 -0.2660129440121030E-02   8   8   5   2
  0.6458178940151107E-02   8   8   5   3
  0.5840083462537990E-02   8   8   5   4
  0.3682661108429642E+00   8   8   5   5
  0.2111085440997251E-02   8   8   6   1
  0.1776080683930596E-01   8   8   6   2
 -0.2435977407729764E-01   8   8   6   3
  0.1437507898446710E-02   8   8   6   4
 -0.5243360396275690E-02   8   8   6   5
  0.3551661923503052E+00   8   8   6   6
  0.3944162801908459E+00   8   8   7   7
 -0.5890363773494411E-01   8   8   8   7
  0.3496801830044572E+00   8   8   8   8
  0.5551192127587012E-01   9   7   1   1
  0.4250140475414412E-01   9   7   2   1
 -0.1126320189317152E-01   9   7   2   2
 -0.1150262469074626E-01   9   7   3   1
 -0.1157192717881810E-01   9   7   3   2
  0.9242664552529978E-02   9   7   3   3
  0.5798232742613367E-02   9   7   4   1
 -0.1966603626899683E-01   9   7   4   2
  0.2804646294752045E-01   9   7   4   3
 -0.1395750864643797E-02   9   7   4   4
  0.7286946112606369E-02   9   7   5   1
  0.6696483735083776E-02   9   7   5   2
  0.2319746510849627E-02   9   7   5   3
  0.4851700241792131E-02   9   7   5   4
  0.2631859021221905E-01   9   7   5   5
  0.1798392702044753E-01   9   7   6   1
  0.2574655800318213E-01   9   7   6   2
 -0.5488813434248077E-02   9   7   6   3
  0.7553283383491510E-02   9   7   6   4
  0.3422457367994066E-02   9   7   6   5
  0.2925277709018312E-02   9   7   6   6
  0.3005072729413079E-01   9   7   7   7
 -0.7020992349198493E-02   9   7   8   7
  0.1615881889423915E-01   9   7   8   8
  0.5517485481473092E-01   9   7   9   7
 -0.2049315884630043E-01   9   8   1   1
 -0.1577943603116758E-01   9   8   2   1
 -0.3157315450559274E-02   9   8   2   2
  0.1025369658965393E-01   9   8   3   1
 -0.3760991970799474E-04   9   8   3   2
 -0.4491991440784152E-02   9   8   3   3
  0.9550247240661808E-04   9   8   4   1
  0.1075462114724721E-01   9   8   4   2
 -0.5040342045235438E-02   9   8   4   3
  0.5413714826416322E-02   9   8   4   4
 -0.1771535154623311E-02   9   8   5   1
 -0.1588111412741012E-02   9   8   5   2
  0.1378482457128077E-02   9   8   5   3
 -0.3353716689093350E-03   9   8   5   4
 -0.6413648520714458E-02   9   8   5   5
 -0.9984660761538356E-02   9   8   6   1
 -0.8050477133982274E-02   9   8   6   2
  0.6387327058030719E-02   9   8   6   3
  0.2307499124216461E-02   9   8   6   4
 -0.1055702874486339E-02   9   8   6   5
 -0.4010640971497469E-02   9   8   6   6
 -0.5313547022277172E-02   9   8   7   7
  0.2641584607375500E-02   9   8   8   7
  0.4953938331113153E-03   9   8   8   8
 -0.1554139992233054E-01   9   8   9   7
  0.1274723613252881E-01   9   8   9   8
  0.5033075761548631E+00   9   9   1   1
  0.4475966837963526E-01   9   9   2   1
  0.4369150476313133E+00   9   9   2   2
 -0.2088220362828547E-01   9   9   3   1
 -0.7698290291259302E-01   9   9   3   2
  0.3560889418839384E+00   9   9   3   3
 -0.4821988780918485E-01   9   9   4   1
  0.4878751951148086E-01   9   9   4   2
  0.1023752412647272E-01   9   9   4   3
  0.3862651884336391E+00   9   9   4   4
  0.2261889420070895E-01   9   9   5   1
 -0.4180361246949869E-02   9   9   5   2
  0.7705023468399100E-02   9   9   5   3
  0.4425319032268541E-02   9   9   5   4
  0.4418753613054912E+00   9   9   5   5
  0.1061528289791225E-01   9   9   6   1
  0.1069500687432759E-01   9   9   6   2
 -0.4066272817853633E-01   9   9   6   3
 -0.1377133287571841E-01   9   9   6   4
 -0.5899230823408784E-02   9   9   6   5
  0.4335492188950555E+00   9   9   6   6
  0.4666464976001921E+00   9   9   7   7
 -0.8740259311180942E-01   9   9   8   7
  0.3781098321177737E+00   9   9   8   8
  0.1606774289024865E-01   9   9   9   7
 -0.8935709767872849E-02   9   9   9   8
  0.4853661103060732E+00   9   9   9   9
  0.5200372268941350E+00  10  10   1   1
  0.6033285622736186E-01  10  10   2   1
  0.4145920477135428E+00  10  10   2   2
 -0.2207534837194028E-01  10  10   3   1
 -0.8641396755227734E-01  10  10   3   2
  0.3537304485605360E+00  10  10   3   3
 -0.4668602066392447E-01  10  10   4   1
  0.3777662227108636E-01  10  10   4   2
  0.2402779451924908E-01  10  10   4   3
  0.3834387830193398E+00  10  10   4   4
 -0.2516284756010573E-01  10  10   5   1
  0.2742423258311228E-02  10  10   5   2
 -0.9831643559651522E-02  10  10   5   3
 -0.6217494923179903E-02  10  10   5   4
  0.4513448182771999E+00  10  10   5   5
  0.1201934297242802E-02  10  10   6   1
  0.2857993169910249E-01  10  10   6   2
 -0.4010362758108166E-01  10  10   6   3
 -0.1682909485033246E-02  10  10   6   4
  0.1008484517272715E-01  10  10   6   5
  0.4251940119061139E+00  10  10   6   6
  0.4434267985843423E+00  10  10   7   7
 -0.8891131712403910E-01  10  10   8   7
  0.3681683540679387E+00  10  10   8   8
  0.2204835268940275E-01  10  10   9   7
 -0.4714033691793157E-02  10  10   9   8
  0.4329551434136241E+00  10  10   9   9
  0.4827706727715378E+00  10  10  10  10
 -0.1288275754680435E+00  11  10   1   1
 -0.3439963940942991E-01  11  10   2   1
 -0.8197024782580306E-01  11  10   2   2
  0.2278438505000127E-01  11  10   3   1
  0.4295233366301272E-01  11  10   3   2
 -0.5135161693201244E-01  11  10   3   3
  0.3448561674462478E-01  11  10   4   1
 -0.1935589231862779E-01  11  10   4   2
  0.2734842111901670E-02  11  10   4   3
 -0.5438176735225683E-01  11  10   4   4
  0.4340871461543932E-02  11  10   5   1
  0.1608629189106800E-02  11  10   5   2
 -0.1316941831905315E-02  11  10   5   3
 -0.4969102779352963E-02  11  10   5   4
 -0.7501547464251700E-01  11  10   5   5
 -0.3011865227137062E-02  11  10   6   1
 -0.1338302696799690E-01  11  10   6   2
  0.1959840890090056E-01  11  10   6   3
  0.4604205112518966E-02  11  10   6   4
 -0.2369629804712131E-02  11  10   6   5
 -0.7855213031526521E-01  11  10   6   6
 -0.8891131712403914E-01  11  10   7   7
  0.4975618841998854E-01  11  10   8   7
 -0.6020648656533021E-01  11  10   8   8
 -0.6555603342640246E-02  11  10   9   7
  0.1594837513880289E-02  11  10   9   8
 -0.8201085099236234E-01  11  10   9   9
 -0.9560133045377063E-01  11  10  10  10
  0.6333864267070982E-01  11  10  11  10
  0.4184740962678706E+00  11  11   1   1
  0.4051444417560011E-01  11  11   2   1
  0.3500686190230949E+00  11  11   2   2
 -0.1622163924296746E-01  11  11   3   1
 -0.6122290393273469E-01  11  11   3   2
  0.3106427109539288E+00  11  11   3   3
 -0.3163704425336433E-01  11  11   4   1
  0.2477799645803574E-01  11  11   4   2
  0.1864324729288819E-01  11  11   4   3
  0.3342760582233146E+00  11  11   4   4
 -0.1479723138174462E-01  11  11   5   1
  0.2660129440121027E-02  11  11   5   2
 -0.6458178940151140E-02  11  11   5   3
 -0.5840083462537967E-02  11  11   5   4
  0.3682661108429645E+00  11  11   5   5
  0.2111085440997362E-02  11  11   6   1
  0.1776080683930560E-01  11  11   6   2
 -0.2435977407729742E-01  11  11   6   3
  0.1437507898444379E-02  11  11   6   4
  0.5243360396275675E-02  11  11   6   5
  0.3551661923503047E+00  11  11   6   6
  0.3681683540679385E+00  11  11   7   7
 -0.6020648656533037E-01  11  11   8   7
  0.3221025503294012E+00  11  11   8   8
  0.1241024562101248E-01  11  11   9   7
 -0.1030151703812002E-02  11  11   9   8
  0.3584276979948773E+00  11  11   9   9
  0.3944162801908462E+00  11  11  10  10
 -0.5890363773494417E-01  11  11  11  10
  0.3496801830044582E+00  11  11  11  11
  0.5551192127586996E-01  12  10   1   1
  0.4250140475414414E-01  12  10   2   1
 -0.1126320189317163E-01  12  10   2   2
 -0.1150262469074634E-01  12  10   3   1
 -0.1157192717881818E-01  12  10   3   2
  0.9242664552530110E-02  12  10   3   3
  0.5798232742613409E-02  12  10   4   1
 -0.1966603626899661E-01  12  10   4   2
  0.2804646294752069E-01  12  10   4   3
 -0.1395750864644052E-02  12  10   4   4
 -0.7286946112606362E-02  12  10   5   1
 -0.6696483735083787E-02  12  10   5   2
 -0.2319746510849610E-02  12  10   5   3
 -0.4851700241792135E-02  12  10   5   4
  0.2631859021221895E-01  12  10   5   5
  0.1798392702044749E-01  12  10   6   1
  0.2574655800318207E-01  12  10   6   2
 -0.5488813434247546E-02  12  10   6   3
  0.7553283383491483E-02  12  10   6   4
 -0.3422457367994060E-02  12  10   6   5
  0.2925277709018329E-02  12  10   6   6
  0.2204835268940263E-01  12  10   7   7
 -0.6555603342640163E-02  12  10   8   7
  0.1241024562101228E-01  12  10   8   8
  0.3676179338800586E-01  12  10   9   7
 -0.1112719007667621E-01  12  10   9   8
  0.1061638513284221E-01  12  10   9   9
  0.3005072729413065E-01  12  10  10  10
 -0.7020992349198344E-02  12  10  11  10
  0.1615881889423869E-01  12  10  11  11
  0.5517485481473092E-01  12  10  12  10
 -0.2049315884630021E-01  12  11   1   1
 -0.1577943603116764E-01  12  11   2   1
 -0.3157315450559090E-02  12  11   2   2
  0.1025369658965391E-01  12  11   3   1
 -0.3760991970805719E-04  12  11   3   2
 -0.4491991440783661E-02  12  11   3   3
  0.9550247240631971E-04  12  11   4   1
  0.1075462114724748E-01  12  11   4   2
 -0.5040342045235896E-02  12  11   4   3
  0.5413714826418099E-02  12  11   4   4
  0.1771535154623312E-02  12  11   5   1
  0.1588111412741020E-02  12  11   5   2
 -0.1378482457128087E-02  12  11   5   3
  0.3353716689093435E-03  12  11   5   4
 -0.6413648520714355E-02  12  11   5   5
 -0.9984660761538547E-02  12  11   6   1
 -0.8050477133982232E-02  12  11   6   2
  0.6387327058030804E-02  12  11   6   3
  0.2307499124217034E-02  12  11   6   4
  0.1055702874486337E-02  12  11   6   5
 -0.4010640971496220E-02  12  11   6   6
 -0.4714033691793179E-02  12  11   7   7
  0.1594837513880220E-02  12  11   8   7
 -0.1030151703811787E-02  12  11   8   8
 -0.1112719007667621E-01  12  11   9   7
  0.8104291717332547E-02  12  11   9   8
 -0.6043285690022387E-02  12  11   9   9
 -0.5313547022277044E-02  12  11  10  10
  0.2641584607375507E-02  12  11  11  10
  0.4953938331115025E-03  12  11  11  11
 -0.1554139992233058E-01  12  11  12  10
  0.1274723613252888E-01  12  11  12  11
  0.5033075761548631E+00  12  12   1   1
  0.4475966837963521E-01  12  12   2   1
  0.4369150476313132E+00  12  12   2   2
 -0.2088220362828555E-01  12  12   3   1
 -0.7698290291259280E-01  12  12   3   2
  0.3560889418839386E+00  12  12   3   3
 -0.4821988780918518E-01  12  12   4   1
  0.4878751951148086E-01  12  12   4   2
  0.1023752412647244E-01  12  12   4   3
  0.3862651884336406E+00  12  12   4   4
 -0.2261889420070896E-01  12  12   5   1
  0.4180361246949880E-02  12  12   5   2
 -0.7705023468399092E-02  12  12   5   3
 -0.4425319032268538E-02  12  12   5   4
  0.4418753613054912E+00  12  12   5   5
  0.1061528289791169E-01  12  12   6   1
  0.1069500687432742E-01  12  12   6   2
 -0.4066272817853595E-01  12  12   6   3
 -0.1377133287571708E-01  12  12   6   4
  0.5899230823408794E-02  12  12   6   5
  0.4335492188950555E+00  12  12   6   6
  0.4329551434136238E+00  12  12   7   7
 -0.8201085099236216E-01  12  12   8   7
  0.3584276979948772E+00  12  12   8   8
  0.1061638513284235E-01  12  12   9   7
 -0.6043285690022562E-02  12  12   9   8
  0.4439512460969341E+00  12  12   9   9
  0.4666464976001922E+00  12  12  10  10
 -0.8740259311180970E-01  12  12  11  10
  0.3781098321177738E+00  12  12  11  11
  0.1606774289024848E-01  12  12  12  10
 -0.8935709767872821E-02  12  12  12  11
  0.4853661103060731E+00  12  12  12  12
  0.4942436338544712E+00  13  13   1   1
  0.4764877335662564E-01  13  13   2   1
  0.3981670227024666E+00  13  13   2   2
 -0.9803577583743506E-02  13  13   3   1
 -0.7247491759188465E-01  13  13   3   2
  0.3441475849649656E+00  13  13   3   3
 -0.3307825200605041E-01  13  13   4   1
  0.3246566658495542E-01  13  13   4   2
  0.2776140268256511E-01  13  13   4   3
  0.3755329055049564E+00  13  13   4   4
 -0.5494511750734149E-17  13  13   5   1
  0.1427720349931114E-17  13  13   5   2
  0.3072558050667869E-17  13  13   5   3
 -0.8254717472654090E-17  13  13   5   4
  0.4433352587703321E+00  13  13   5   5
 -0.4436561530352767E-02  13  13   6   1
  0.2690656773906554E-01  13  13   6   2
 -0.3729230395494981E-01  13  13   6   3
 -0.4587249113657821E-03  13  13   6   4
 -0.3060452327287668E-18  13  13   6   5
  0.4152503804102821E+00  13  13   6   6
  0.4513448182771995E+00  13  13   7   7
 -0.7501547464251701E-01  13  13   8   7
  0.3682661108429637E+00  13  13   8   8
  0.2631859021221894E-01  13  13   9   7
 -0.6413648520714341E-02  13  13   9   8
  0.4418753613054908E+00  13  13   9   9
  0.4513448182771995E+00  13  13  10  10
 -0.7501547464251712E-01  13  13  11  10
  0.3682661108429643E+00  13  13  11  11
  0.2631859021221886E-01  13  13  12  10
 -0.6413648520714132E-02  13  13  12  11
  0.4418753613054908E+00  13  13  12  12
  0.4625430151610477E+00  13  13  13  13
  0.4379240150828269E+00  14  14   1   1
  0.4376133433786733E-02  14  14   2   1
  0.4357007405021555E+00  14  14   2   2
 -0.8926939849966120E-02  14  14   3   1
 -0.6337407350778243E-01  14  14   3   2
  0.3429504175893904E+00  14  14   3   3
 -0.5148316588054069E-01  14  14   4   1
  0.6655520047688956E-01  14  14   4   2
 -0.1633603608812229E-01  14  14   4   3
  0.3816668036552585E+00  14  14   4   4
 -0.7221353470897190E-17  14  14   5   1
  0.7528728400949797E-17  14  14   5   2
 -0.2091824468471850E-17  14  14   5   3
 -0.2722668946459686E-17  14  14   5   4
  0.4040583409037516E+00  14  14   5   5
 -0.6941143841106001E-02  14  14   6   1
 -0.1931587951803207E-01  14  14   6   2
 -0.3164885237672663E-01  14  14   6   3
 -0.2227943777343211E-01  14  14   6   4
 -0.4215715526942326E-17  14  14   6   5
  0.4227208025500712E+00  14  14   6   6
  0.4135601135404437E+00  14  14   7   7
 -0.7493290869334263E-01  14  14   8   7
  0.3484826099320066E+00  14  14   8   8
 -0.2645687990860851E-01  14  14   9   7
  0.6430274223926918E-02  14  14   9   8
  0.4325431064762869E+00  14  14   9   9
  0.4135601135404438E+00  14  14  10  10
 -0.7493290869334296E-01  14  14  11  10
  0.3484826099320068E+00  14  14  11  11
 -0.2645687990860862E-01  14  14  12  10
  0.6430274223927071E-02  14  14  12  11
  0.4325431064762869E+00  14  14  12  12
  0.4040583409037513E+00  14  14  13  13
  0.4446262606162278E+00  14  14  14  14
  0.8146274458608203E-01  15  14   1   1
  0.1578236817154285E-01  15  14   2   1
  0.4672819587093397E-01  15  14   2   2
 -0.2406957179924958E-02  15  14   3   1
 -0.3492508593996019E-01  15  14   3   2
  0.2722773270552131E-01  15  14   3   3
 -0.1587774971259709E-01  15  14   4   1
  0.1732638151835392E-01  15  14   4   2
  0.8573751682181538E-02  15  14   4   3
  0.4676191763670277E-01  15  14   4   4
 -0.2927049809100692E-17  15  14   5   1
  0.1221657104429722E-17  15  14   5   2
  0.5581953158038804E-18  15  14   5   3
 -0.2101680096900548E-17  15  14   5   4
  0.6303184725458602E-01  15  14   5   5
 -0.4421002752708014E-02  15  14   6   1
  0.1171306460030852E-01  15  14   6   2
 -0.7841256555737440E-02  15  14   6   3
  0.1788225665090779E-02  15  14   6   4
  0.7121298061413740E-18  15  14   6   5
  0.5166668754435065E-01  15  14   6   6
  0.6833351191980676E-01  15  14   7   7
 -0.2841981816603587E-01  15  14   8   7
  0.4670477609832240E-01  15  14   8   8
  0.4380929540053657E-02  15  14   9   7
  0.3889200790645203E-02  15  14   9   8
  0.5900987836826929E-01  15  14   9   9
  0.6833351191980676E-01  15  14  10  10
 -0.2841981816603591E-01  15  14  11  10
  0.4670477609832249E-01  15  14  11  11
  0.4380929540053650E-02  15  14  12  10
  0.3889200790645220E-02  15  14  12  11
  0.5900987836826927E-01  15  14  12  12
  0.6303184725458644E-01  15  14  13  13
  0.5209122646924880E-01  15  14  14  14
  0.2936564563913989E-01  15  14  15  14
  0.2892667065994847E+00  15  15   1   1
  0.3675733501721373E-03  15  15   2   1
  0.3013538944863984E+00  15  15   2   2
 -0.1017831739988877E-01  15  15   3   1
 -0.1947707431632917E-02  15  15   3   2
  0.2793038091606660E+00  15  15   3   3
 -0.1759617247941059E-01  15  15   4   1
  0.1373782801919010E-01  15  15   4   2
 -0.1858573143889275E-01  15  15   4   3
  0.2669661492941979E+00  15  15   4   4
 -0.3388059266333353E-17  15  15   5   1
  0.2036578698338557E-17  15  15   5   2
 -0.2044365718219497E-17  15  15   5   3
 -0.1196187024831834E-17  15  15   5   4
  0.2747833339463134E+00  15  15   5   5
 -0.1474128623289439E-03  15  15   6   1
 -0.1127511731267848E-01  15  15   6   2
 -0.1454556488058087E-01  15  15   6   3
 -0.1212165385919317E-01  15  15   6   4
 -0.2030654296134116E-17  15  15   6   5
  0.2899744435618978E+00  15  15   6   6
  0.2774449366537226E+00  15  15   7   7
 -0.2721398205641859E-01  15  15   8   7
  0.2524257511288165E+00  15  15   8   8
 -0.1033853976371775E-01  15  15   9   7
 -0.3314221074545598E-02  15  15   9   8
  0.2891788347473773E+00  15  15   9   9
  0.2774449366537226E+00  15  15  10  10
 -0.2721398205641870E-01  15  15  11  10
  0.2524257511288167E+00  15  15  11  11
 -0.1033853976371785E-01  15  15  12  10
 -0.3314221074545529E-02  15  15  12  11
  0.2891788347473773E+00  15  15  12  12
  0.2747833339463178E+00  15  15  13  13
  0.2969164191477731E+00  15  15  14  14
 -0.8776170768913238E-03  15  15  15  14
  0.2869854739000780E+00  15  15  15  15
  0.4359673025751386E-02  16  14   1   1
 -0.2373785818809249E-01  16  14   2   1
  0.6048500061145509E-01  16  14   2   2
  0.2621698967790049E-02  16  14   3   1
 -0.1019543431743477E-01  16  14   3   2
  0.1908367303180709E-01  16  14   3   3
 -0.1845305932080497E-01  16  14   4   1
  0.3985036351656425E-01  16  14   4   2
 -0.2689287688835618E-01  16  14   4   3
  0.3533880965214991E-01  16  14   4   4