 &FCI NORB= 26,NELEC= 10,MS2= 0,
  ORBSYM=1,1,1,1,1,1,1,1,1,1,1,1,2,2,2,2,2,2,3,3,3,3,3,3,4,4,
  ISYM=1,
  OCC=  3,  1,  1,  0,  0,  0,  0,  0,
  CLOSED=  3,  1,  1,  0,  0,  0,  0,  0,
  FOCK=    -20.669705122123,    -11.373386216986,     -1.511439696964,     -0.800574214965,     -0.550720920378,
       0.381359151319,      0.724740153143,      0.995382912385,      1.059746839864,      1.343802385861,      1.938578820077,      2.309277255374,      2.934986026252,      3.847785146084,     -0.627294744368,      0.147818597291,      0.671596414834,      1.227256409288,      1.544975103440,      3.410048685245,     -0.627294744368,      0.147818597291,      0.671596414834,      1.227256409288,      1.544975103440,      3.410048685245,
 /
  0.8199852215945359E+00   1   1   1   1
 -0.5562313006365471E-01   2   1   1   1
  0.1128616543427208E+00   2   1   2   1
  0.6569404926561375E+00   2   2   1   1
  0.6856965409318588E-01   2   2   2   1
  0.7187219123910134E+00   2   2   2   2
  0.9753360340618464E-01   3   1   1   1
 -0.3361746029418050E-01   3   1   2   1
  0.2989115007215198E-01   3   1   2   2
  0.3281521269930928E-01   3   1   3   1
 -0.9905805124586511E-01   3   2   1   1
 -0.4041280563876881E-01   3   2   2   1
 -0.1220323416197205E+00   3   2   2   2
 -0.1817161864472005E-01   3   2   3   1
  0.7205823227293985E-01   3   2   3   2
  0.4445459192956450E+00   3   3   1   1
 -0.6843546774273795E-01   3   3   2   1
  0.3989403667852705E+00   3   3   2   2
  0.9272609376167801E-02   3   3   3   1
  0.6231180996018723E-01   3   3   3   2
  0.5966135120915360E+00   3   3   3   3
 -0.9234694940595733E-01   4   1   1   1
 -0.2908300299996723E-02   4   1   2   1
 -0.6799159753510876E-01   4   1   2   2
 -0.2092183563495882E-01   4   1   3   1
  0.2696806187170950E-01   4   1   3   2
 -0.1435041347513459E-01   4   1   3   3
  0.2618468807829837E-01   4   1   4   1
 -0.2147408728949126E-01   4   2   1   1
 -0.9844939540940687E-02   4   2   2   1
 -0.3441008952874333E-01   4   2   2   2
  0.4342065706583800E-02   4   2   3   1
  0.4827274631482976E-02   4   2   3   2
 -0.1013810805051321E-01   4   2   3   3
  0.9518313328061336E-03   4   2   4   1
  0.8681340227803914E-02   4   2   4   2
 -0.5454921774992091E-01   4   3   1   1
  0.6592966594043375E-02   4   3   2   1
 -0.3255800474160140E-01   4   3   2   2
 -0.1154838849612172E-01   4   3   3   1
  0.1863957848006414E-01   4   3   3   2
  0.2128459762997978E-01   4   3   3   3
  0.5723307610240133E-02   4   3   4   1
  0.3916795587382883E-02   4   3   4   2
  0.2413668468802967E-01   4   3   4   3
  0.3527829030457065E+00   4   4   1   1
 -0.1654778843297732E-01   4   4   2   1
  0.3228735210921339E+00   4   4   2   2
  0.1048129107732048E-01   4   4   3   1
  0.1387614361723570E-02   4   4   3   2
  0.3328185345696199E+00   4   4   3   3
 -0.9402582678367688E-02   4   4   4   1
 -0.5969535266860726E-02   4   4   4   2
 -0.4242488152023296E-03   4   4   4   3
  0.2947871864343202E+00   4   4   4   4
 -0.2174241231288697E-01   5   1   1   1
  0.8832768984787013E-03   5   1   2   1
 -0.2227638980732233E-01   5   1   2   2
 -0.7535260104973831E-03   5   1   3   1
  0.1285050528302601E-02   5   1   3   2
 -0.1672763676817118E-01   5   1   3   3
  0.3262195287130655E-02   5   1   4   1
  0.2494982284451247E-02   5   1   4   2
  0.7576363498355901E-03   5   1   4   3
 -0.3416059583993758E-02   5   1   4   4
  0.2795850205299144E-02   5   1   5   1
  0.2942432984524174E-02   5   2   1   1
 -0.1954996274291143E-01   5   2   2   1
 -0.1034119165044142E-01   5   2   2   2
 -0.8356869511727304E-03   5   2   3   1
  0.1806977675804070E-01   5   2   3   2
  0.3787474380074409E-01   5   2   3   3
  0.5519810639586887E-02   5   2   4   1
  0.1657024945802764E-02   5   2   4   2
 -0.8674817450586396E-04   5   2   4   3
  0.2420640002364777E-02   5   2   4   4
 -0.2220475713201477E-02   5   2   5   1
  0.1254931863137347E-01   5   2   5   2
  0.7379043577848514E-01   5   3   1   1
 -0.2533354374595536E-01   5   3   2   1
  0.6408362279679235E-01   5   3   2   2
  0.1371522490142212E-02   5   3   3   1
  0.2436606864932188E-01   5   3   3   2
  0.1389790496860980E+00   5   3   3   3
 -0.2204076479305712E-02   5   3   4   1
 -0.5395174687643112E-02   5   3   4   2
 -0.1161952507237421E-02   5   3   4   3
  0.1790976384021983E-01   5   3   4   4
 -0.9433350309696185E-02   5   3   5   1
  0.2779712121905380E-01   5   3   5   2
  0.9758465921469039E-01   5   3   5   3
  0.3626160363195397E-01   5   4   1   1
  0.7734863691535272E-02   5   4   2   1
  0.3591276114409021E-01   5   4   2   2
  0.3237850391666395E-02   5   4   3   1
 -0.1671650583307239E-01   5   4   3   2
 -0.1492697322964023E-01   5   4   3   3
 -0.6279707736630141E-03   5   4   4   1
 -0.5671283557979724E-02   5   4   4   2
 -0.2248835642540838E-01   5   4   4   3
 -0.9627949490374638E-03   5   4   4   4
  0.1568339226152588E-03   5   4   5   1
  0.7670988692392159E-03   5   4   5   2
  0.9917384429587176E-02   5   4   5   3
  0.3179623964748558E-01   5   4   5   4
  0.3424158642386033E+00   5   5   1   1
 -0.5746196733687897E-01   5   5   2   1
  0.3102267530936164E+00   5   5   2   2
 -0.1470370306541893E-02   5   5   3   1
  0.6485703996222167E-01   5   5   3   2
  0.4998861561581401E+00   5   5   3   3
  0.2534639008253126E-03   5   5   4   1
 -0.7538196725789259E-02   5   5   4   2
  0.2353062132937710E-01   5   5   4   3
  0.3074139896720650E+00   5   5   4   4
 -0.1064686255070340E-01   5   5   5   1
  0.2939877965301110E-01   5   5   5   2
  0.9913140570044954E-01   5   5   5   3
 -0.2218758982902413E-01   5   5   5   4
  0.4535596174291376E+00   5   5   5   5
 -0.4384723182053035E-01   6   1   1   1
 -0.3454498653493129E-01   6   1   2   1
 -0.1904823197046214E-01   6   1   2   2
 -0.1274708719161832E-01   6   1   3   1
  0.2548726131703237E-01   6   1   3   2
  0.3912928937709170E-01   6   1   3   3
  0.2357940652812869E-01   6   1   4   1
 -0.1296184629478635E-02   6   1   4   2
  0.6981340567651142E-02   6   1   4   3
 -0.4787333594372172E-02   6   1   4   4
 -0.2728876218227420E-02   6   1   5   1
  0.1451399695862859E-01   6   1   5   2
  0.2516611504096341E-01   6   1   5   3
 -0.6654354349515293E-02   6   1   5   4
  0.3936423828170514E-01   6   1   5   5
  0.7117181876157976E-01   6   1   6   1
 -0.4446902811431377E-01   6   2   1   1
  0.6652629890983459E-01   6   2   2   1
  0.3494342833721158E-01   6   2   2   2
 -0.1408820023520652E-01   6   2   3   1
 -0.3327361630639900E-01   6   2   3   2
 -0.5186412624366009E-01   6   2   3   3
 -0.5943441741113442E-02   6   2   4   1
  0.2903777380860430E-02   6   2   4   2
  0.4235162053065097E-02   6   2   4   3
 -0.1502515313784797E-01   6   2   4   4
  0.3753157936751354E-02   6   2   5   1
 -0.1379137733840126E-01   6   2   5   2
 -0.2298459225507503E-01   6   2   5   3
  0.4268667862508277E-02   6   2   5   4
 -0.4861659082282120E-01   6   2   5   5
 -0.2968796148813942E-01   6   2   6   1
  0.6839814667686928E-01   6   2   6   2
 -0.3194766001921316E-01   6   3   1   1
 -0.2349422293683948E-01   6   3   2   1
 -0.4362170084613550E-01   6   3   2   2
 -0.3362998549261625E-02   6   3   3   1
  0.3310392260566811E-01   6   3   3   2
  0.5957049402015226E-01   6   3   3   3
  0.9966798507338795E-02   6   3   4   1
  0.4097334084984250E-02   6   3   4   2
  0.1685432372597268E-01   6   3   4   3
  0.4799176890307801E-02   6   3   4   4
  0.1109690157832740E-02   6   3   5   1
  0.1032151385483282E-01   6   3   5   2
  0.2979047565897990E-01   6   3   5   3
 -0.8548934890213092E-02   6   3   5   4
  0.5182006811291242E-01   6   3   5   5
  0.2059621586323875E-01   6   3   6   1
 -0.1882946661936522E-01   6   3   6   2
  0.3709623202652450E-01   6   3   6   3
  0.5928563381223428E-01   6   4   1   1
 -0.6238566592771999E-02   6   4   2   1
  0.4668236163624158E-01   6   4   2   2
  0.8438698891123786E-02   6   4   3   1
 -0.4742447041002062E-02   6   4   3   2
  0.4082186951112135E-01   6   4   3   3
 -0.1137015298642368E-01   6   4   4   1
 -0.4292084212187963E-03   6   4   4   2
 -0.1528707341287827E-02   6   4   4   3
  0.8461660995905562E-02   6   4   4   4
 -0.4035577630414037E-02   6   4   5   1
  0.4466445623020700E-02   6   4   5   2
  0.1793810422971743E-01   6   4   5   3
 -0.8414112191646311E-03   6   4   5   4
  0.2253828430946174E-01   6   4   5   5
 -0.6777799583023089E-03   6   4   6   1
 -0.3187992367706671E-02   6   4   6   2
 -0.4003293634751576E-03   6   4   6   3
  0.1474845216101947E-01   6   4   6   4
 -0.1275334165589073E-01   6   5   1   1
  0.1331669241755291E-02   6   5   2   1
 -0.6550862955012605E-02   6   5   2   2
 -0.1423008251463354E-02   6   5   3   1
  0.8847054920165348E-02   6   5   3   2
  0.3010968778081258E-01   6   5   3   3
 -0.5279978496056693E-03   6   5   4   1
  0.3474931903377899E-02   6   5   4   2
  0.9771759617983398E-02   6   5   4   3
 -0.2211499475301314E-02   6   5   4   4
  0.5793133609622320E-03   6   5   5   1
  0.4492637309440096E-02   6   5   5   2
  0.2047737768341217E-01   6   5   5   3
 -0.5919556339842220E-02   6   5   5   4
  0.2537480448608764E-01   6   5   5   5
  0.2983820786277276E-02   6   5   6   1
  0.4645109000350401E-02   6   5   6   2
  0.1690090685601893E-01   6   5   6   3
  0.3693348533315245E-02   6   5   6   4
  0.1607856851203623E-01   6   5   6   5
  0.6029785003313238E+00   6   6   1   1
 -0.5786503985005702E-01   6   6   2   1
  0.5307720958688741E+00   6   6   2   2
  0.4273569263426680E-01   6   6   3   1
 -0.2770752057139714E-01   6   6   3   2
  0.4763654827571766E+00   6   6   3   3
 -0.3608149576783615E-01   6   6   4   1
 -0.1855883141848985E-01   6   6   4   2
 -0.2537141397778835E-01   6   6   4   3
  0.3290927750605796E+00   6   6   4   4
 -0.1904743184570913E-01   6   6   5   1
  0.2511688581424137E-01   6   6   5   2
  0.1066760835195960E+00   6   6   5   3
  0.2160461528194879E-01   6   6   5   4
  0.3934285359248090E+00   6   6   5   5
  0.3581115640125601E-01   6   6   6   1
 -0.5604135600778293E-01   6   6   6   2
  0.9049654044424232E-02   6   6   6   3
  0.4731869506896658E-01   6   6   6   4
  0.3769916020197828E-02   6   6   6   5
  0.5656506805523358E+00   6   6   6   6
  0.4824800042667002E-01   7   1   1   1
 -0.2416019422206598E-01   7   1   2   1
  0.2543476443493447E-02   7   1   2   2
  0.2473024255403103E-01   7   1   3   1
 -0.1195506940131113E-01   7   1   3   2
 -0.3401460915837360E-03   7   1   3   3
 -0.1618267957978731E-01   7   1   4   1
  0.1064723634835294E-01   7   1   4   2
 -0.6633880723660045E-02   7   1   4   3
  0.4314579972729157E-03   7   1   4   4
  0.1084084703176993E-02   7   1   5   1
  0.9830181329589273E-03   7   1   5   2
 -0.1596988858143599E-02   7   1   5   3
 -0.4040598475543731E-03   7   1   5   4
 -0.8485631398808169E-02   7   1   5   5
 -0.1220385832074440E-01   7   1   6   1
  0.1785644305141362E-02   7   1   6   2
 -0.3332893729523122E-02   7   1   6   3
  0.7561462446028730E-02   7   1   6   4
  0.2248954517627097E-02   7   1   6   5
  0.1329706957245856E-01   7   1   6   6
  0.3012787363273431E-01   7   1   7   1
 -0.1261943517321260E+00   7   2   1   1
 -0.2147000776873792E-01   7   2   2   1
 -0.1332467027305701E+00   7   2   2   2
 -0.1853126127877401E-01   7   2   3   1
  0.4134634194845145E-01   7   2   3   2
 -0.4315598783339167E-01   7   2   3   3
  0.3501944200369991E-01   7   2   4   1
  0.1187622524880752E-01   7   2   4   2
  0.1388944314443752E-02   7   2   4   3
 -0.2133512139384157E-01   7   2   4   4
  0.6909300038438732E-02   7   2   5   1
  0.1352678423528390E-01   7   2   5   2
 -0.1173855592288735E-01   7   2   5   3
 -0.1196087330647022E-02   7   2   5   4
 -0.1830324277981965E-01   7   2   5   5
  0.2758026928932082E-01   7   2   6   1
 -0.1007301198304062E-01   7   2   6   2
  0.7844437344166422E-02   7   2   6   3
 -0.1001171161765418E-01   7   2   6   4
 -0.2619771702791762E-03   7   2   6   5
 -0.5448704699776769E-01   7   2   6   6
 -0.4167255984154128E-02   7   2   7   1
  0.8442596250321519E-01   7   2   7   2
  0.9246573305006835E-01   7   3   1   1
 -0.7481779826046982E-03   7   3   2   1
  0.7155624005358567E-01   7   3   2   2
  0.1903111168433172E-01   7   3   3   1
 -0.3783163549721881E-01   7   3   3   2
 -0.3177390594076267E-01   7   3   3   3
 -0.1856524714719414E-01   7   3   4   1
 -0.8549432827662101E-02   7   3   4   2
 -0.2351023511191470E-01   7   3   4   3
  0.7424467602148872E-02   7   3   4   4
 -0.2776278026329761E-02   7   3   5   1
 -0.1058078171566593E-01   7   3   5   2
 -0.1715787866132453E-01   7   3   5   3
  0.1268354535913897E-01   7   3   5   4
 -0.3017607506290875E-01   7   3   5   5
 -0.1579062819959993E-01   7   3   6   1
 -0.3748986479524697E-02   7   3   6   2
 -0.3044256550123786E-01   7   3   6   3
  0.2180490684362719E-02   7   3   6   4
 -0.1665295931566678E-01   7   3   6   5
  0.3043855896521856E-01   7   3   6   6
  0.7357164162799912E-02   7   3   7   1
 -0.3139758495604665E-01   7   3   7   2
  0.4596734890976036E-01   7   3   7   3
 -0.5139891857594159E-01   7   4   1   1
  0.4044766720156835E-01   7   4   2   1
 -0.9527164875913609E-03   7   4   2   2
 -0.1157169751770070E-01   7   4   3   1
 -0.2133192818554038E-01   7   4   3   2
 -0.6832592513018954E-01   7   4   3   3
  0.2906745667217048E-02   7   4   4   1
  0.2097263752644317E-02   7   4   4   2
 -0.1114087989310512E-02   7   4   4   3
 -0.2664156640587860E-01   7   4   4   4
  0.1725107168698500E-02   7   4   5   1
 -0.5884869540476602E-02   7   4   5   2
 -0.1630864961394539E-01   7   4   5   3
  0.4682843477853124E-02   7   4   5   4
 -0.5393302534905858E-01   7   4   5   5
 -0.3561077117513411E-02   7   4   6   1
  0.2782244399873618E-01   7   4   6   2
 -0.1283847326806636E-01   7   4   6   3
 -0.4024699236985563E-02   7   4   6   4
  0.4901119365665479E-03   7   4   6   5
 -0.4234236739025837E-01   7   4   6   6
 -0.3581004361061433E-02   7   4   7   1
  0.8393930935196912E-02   7   4   7   2
 -0.1450308460055283E-02   7   4   7   3
  0.3042032961728587E-01   7   4   7   4
  0.1410499804023944E-01   7   5   1   1
  0.1729540730902855E-01   7   5   2   1
  0.2996921973410262E-01   7   5   2   2
  0.1469533144567172E-02   7   5   3   1
 -0.2313780010490215E-01   7   5   3   2
 -0.3757594816549400E-01   7   5   3   3
 -0.5692900219134420E-02   7   5   4   1
 -0.8826962544245799E-03   7   5   4   2
 -0.5919002590000905E-02   7   5   4   3
 -0.5510493244760487E-02   7   5   4   4
 -0.5853275052973457E-03   7   5   5   1
 -0.6656782238067057E-02   7   5   5   2
 -0.1788531338750455E-01   7   5   5   3
  0.3138112443269440E-02   7   5   5   4
 -0.3415582140480770E-01   7   5   5   5
 -0.5860253466466247E-02   7   5   6   1
  0.1189275688788862E-01   7   5   6   2
 -0.1758162691858389E-01   7   5   6   3
  0.1449883893368798E-02   7   5   6   4
 -0.7850269531628757E-02   7   5   6   5
 -0.2604025939109913E-02   7   5   6   6
  0.1990011481641383E-02   7   5   7   1
 -0.5815349427695883E-02   7   5   7   2
  0.1355611881571614E-01   7   5   7   3
  0.1238813079352533E-01   7   5   7   4
  0.1317550012345973E-01   7   5   7   5
 -0.4860136158541832E-01   7   6   1   1
  0.3276030035199425E-01   7   6   2   1
 -0.1330420145445321E-01   7   6   2   2
 -0.8472988286876341E-02   7   6   3   1
 -0.2271124392590059E-01   7   6   3   2
 -0.8611542424442677E-01   7   6   3   3
  0.7719833468960971E-02   7   6   4   1
  0.4932928159000871E-02   7   6   4   2
 -0.7854998761977618E-02   7   6   4   3
 -0.2276210459168715E-01   7   6   4   4
  0.4953106113266206E-02   7   6   5   1
 -0.6067053335693975E-02   7   6   5   2
 -0.2969531271672064E-01   7   6   5   3
  0.1035740499490419E-01   7   6   5   4
 -0.6615036865128525E-01   7   6   5   5
 -0.2835313268538378E-02   7   6   6   1
  0.2710103678696678E-01   7   6   6   2
 -0.1739797699788422E-01   7   6   6   3
 -0.6868384207741551E-02   7   6   6   4
 -0.3874377324947151E-02   7   6   6   5
 -0.4116430671852357E-01   7   6   6   6
  0.1777573700320161E-03   7   6   7   1
  0.2934396790810093E-01   7   6   7   2
 -0.5070946488056755E-03   7   6   7   3
  0.3075610127001379E-01   7   6   7   4
  0.1434630838816878E-01   7   6   7   5
  0.4738375728780773E-01   7   6   7   6
  0.5166634375390006E+00   7   7   1   1
  0.2933972519968438E-01   7   7   2   1
  0.5377488892298647E+00   7   7   2   2
  0.2428132355261141E-01   7   7   3   1
 -0.6908571918510051E-01   7   7   3   2
  0.3700371596654858E+00   7   7   3   3
 -0.4293302707888846E-01   7   7   4   1
 -0.1278977464351821E-01   7   7   4   2
 -0.2258999229557231E-01   7   7   4   3
  0.3014365135649189E+00   7   7   4   4
 -0.1248292171425796E-01   7   7   5   1
  0.8478080313301939E-03   7   7   5   2
  0.5265602477877385E-01   7   7   5   3
  0.2695720454292316E-01   7   7   5   4
  0.2972997072431474E+00   7   7   5   5
 -0.1816896367263338E-01   7   7   6   1
  0.2972978736888277E-01   7   7   6   2
 -0.2322624996837154E-01   7   7   6   3
  0.4074848081725624E-01   7   7   6   4
  0.2314173573853551E-02   7   7   6   5
  0.4421329967601543E+00   7   7   6   6
  0.1527833518146654E-01   7   7   7   1
 -0.6870610462310385E-01   7   7   7   2
  0.3334224299503889E-01   7   7   7   3
 -0.2539631378545681E-02   7   7   7   4
  0.1778585282902911E-01   7   7   7   5
 -0.2205788592033686E-02   7   7   7   6
  0.4702729609025728E+00   7   7   7   7
  0.1560212567262901E-15   8   1   1   1
 -0.3377399984703888E-16   8   1   2   1
  0.6049182923676816E-16   8   1   2   2
  0.6084857227434124E-16   8   1   3   1
 -0.4495290324904052E-16   8   1   3   2
  0.8606894078929727E-17   8   1   3   3
 -0.5131396670090916E-16   8   1   4   1
  0.1564237466953816E-16   8   1   4   2
 -0.1940676548764671E-16   8   1   4   3
  0.1108576024798426E-16   8   1   4   4
 -0.1406843953142464E-17   8   1   5   1
 -0.4327393876008024E-17   8   1   5   2
 -0.1599192255773996E-17   8   1   5   3
  0.6937359749683301E-18   8   1   5   4
 -0.1731219626751455E-16   8   1   5   5
 -0.4784331072351095E-16   8   1   6   1
  0.1333533664218940E-16   8   1   6   2
 -0.1738143774500585E-16   8   1   6   3
  0.2499283489314458E-16   8   1   6   4
  0.4323839403063425E-17   8   1   6   5
  0.4605499277417989E-16   8   1   6   6
  0.4397389315541186E-16   8   1   7   1
 -0.2373040932637121E-16   8   1   7   2
  0.5088254610370579E-16   8   1   7   3
 -0.2593362811861427E-16   8   1   7   4
  0.9762727469048991E-17   8   1   7   5
 -0.2004949600527793E-16   8   1   7   6
  0.1058178616177197E-15   8   1   7   7
  0.1421621363516038E-01   8   1   8   1
 -0.2094445395558985E-15   8   2   1   1
 -0.3523089755005854E-16   8   2   2   1
 -0.2173565956876313E-15   8   2   2   2
 -0.3487026936529172E-16   8   2   3   1
  0.7223355390473368E-16   8   2   3   2
 -0.6707782190087069E-16   8   2   3   3
  0.5904575801123957E-16   8   2   4   1
  0.1830590902565546E-16   8   2   4   2
  0.6381920615766837E-17   8   2   4   3
 -0.3726327082645403E-16   8   2   4   4
  0.1062557994234037E-16   8   2   5   1
  0.2277530547284173E-16   8   2   5   2
 -0.1734843832657541E-16   8   2   5   3
 -0.1728265331056003E-17   8   2   5   4
 -0.2584530913060414E-16   8   2   5   5
  0.5179053426782437E-16   8   2   6   1
 -0.2203045730445765E-16   8   2   6   2
  0.1509932060341170E-16   8   2   6   3
 -0.1808209953804025E-16   8   2   6   4
 -0.5275197662395804E-18   8   2   6   5
 -0.8450347105779420E-16   8   2   6   6
  0.4392736834797512E-17   8   2   7   1
  0.1193466772301766E-15   8   2   7   2
 -0.8226058710688451E-16   8   2   7   3
  0.3097044997001733E-16   8   2   7   4
 -0.1240341155843316E-16   8   2   7   5
  0.6402379359208344E-16   8   2   7   6
 -0.1530870427564199E-15   8   2   7   7
 -0.1078391964882610E-01   8   2   8   1
  0.1265066079127086E-01   8   2   8   2
  0.1913195071253210E-15   8   3   1   1
 -0.1138110350166080E-17   8   3   2   1
  0.1450035442535984E-15   8   3   2   2
  0.4016126689165027E-16   8   3   3   1
 -0.7511225740436323E-16   8   3   3   2
 -0.5426906481725793E-16   8   3   3   3
 -0.4231393575340050E-16   8   3   4   1
 -0.1076360960883666E-16   8   3   4   2
 -0.3767308152691997E-16   8   3   4   3
  0.1303782963850947E-16   8   3   4   4
 -0.4898975792437425E-17   8   3   5   1
 -0.2015512179046378E-16   8   3   5   2
 -0.2947464167240627E-16   8   3   5   3
  0.2415764496174357E-16   8   3   5   4
 -0.5777042687382473E-16   8   3   5   5
 -0.3833316474826900E-16   8   3   6   1
 -0.1533789473805290E-17   8   3   6   2
 -0.5537796884605577E-16   8   3   6   3
  0.5760361684005783E-17   8   3   6   4
 -0.2777652816958395E-16   8   3   6   5
  0.6314110009793856E-16   8   3   6   6
  0.3984987158554521E-16   8   3   7   1
 -0.9274219193651644E-16   8   3   7   2
  0.3002411265718590E-16   8   3   7   3
  0.1858218396027837E-16   8   3   7   4
  0.2350825107988652E-16   8   3   7   5
  0.1515045079726501E-16   8   3   7   6
  0.3029713987852914E-16   8   3   7   7
 -0.1114118336808155E-01   8   3   8   1
  0.1641831656197557E-01   8   3   8   2
  0.3083462576512289E-01   8   3   8   3
 -0.1247765371951069E-15   8   4   1   1
  0.5541036330194594E-16   8   4   2   1
 -0.3293800122131599E-16   8   4   2   2
 -0.2968796605555321E-16   8   4   3   1
 -0.1134437242671597E-16   8   4   3   2
 -0.8694340121192213E-16   8   4   3   3
  0.1858641507637160E-16   8   4   4   1
  0.1571265660764291E-17   8   4   4   2
  0.2608311700665772E-17   8   4   4   3
 -0.4138542493235668E-16   8   4   4   4
  0.2276051725435453E-17   8   4   5   1
 -0.3118049690918882E-17   8   4   5   2
 -0.1783111764369114E-16   8   4   5   3
  0.2783904872104599E-17   8   4   5   4
 -0.6388238949284314E-16   8   4   5   5
  0.1432783646054393E-16   8   4   6   1
  0.3561550743252988E-16   8   4   6   2
 -0.1100171542346264E-16   8   4   6   3
 -0.6549074152786557E-17   8   4   6   4
  0.2728708737071724E-17   8   4   6   5
 -0.7390491070479648E-16   8   4   6   6
 -0.3006438556691596E-16   8   4   7   1
  0.4553926016795446E-16   8   4   7   2
  0.4595294349557216E-17   8   4   7   3
  0.2341227362101841E-16   8   4   7   4
  0.9600309974202367E-17   8   4   7   5
  0.3544818301265543E-16   8   4   7   6
  0.1729784177214695E-16   8   4   7   7
  0.8945457922151970E-02   8   4   8   1
 -0.9001179071859093E-02   8   4   8   2
 -0.1126144454577452E-01   8   4   8   3
  0.1093177468038609E-01   8   4   8   4
  0.6660761589976447E-17   8   5   1   1
  0.2796994839047559E-16   8   5   2   1
  0.3544829131423083E-16   8   5   2   2
  0.9495255602037574E-18   8   5   3   1
 -0.3489899158193764E-16   8   5   3   2
 -0.6612827126378604E-16   8   5   3   3
 -0.8174248391136541E-17   8   5   4   1
  0.7643173266565380E-19   8   5   4   2
 -0.6580000686094313E-17   8   5   4   3
 -0.1190877961528940E-16   8   5   4   4
 -0.4564873488160245E-18   8   5   5   1
 -0.1173753294651574E-16   8   5   5   2
 -0.3421756223227783E-16   8   5   5   3
  0.3388576101923735E-17   8   5   5   4
 -0.5715974233095417E-16   8   5   5   5
 -0.8353494858515112E-17   8   5   6   1
  0.2087674434906088E-16   8   5   6   2
 -0.2724014985645373E-16   8   5   6   3
  0.6985151857173816E-18   8   5   6   4
 -0.1172074835945559E-16   8   5   6   5
 -0.1639181677750169E-16   8   5   6   6
  0.4003883292654575E-17   8   5   7   1
 -0.9475932581201133E-17   8   5   7   2
  0.1780055563608137E-16   8   5   7   3
  0.1612433025920058E-16   8   5   7   4
  0.5688928261528984E-17   8   5   7   5
  0.2965201884597197E-16   8   5   7   6
  0.2582156192822295E-16   8   5   7   7
 -0.2874780540422906E-03   8   5   8   1
  0.1141047840451010E-02   8   5   8   2
  0.9386070902064612E-03   8   5   8   3
  0.2484014109934736E-02   8   5   8   4
  0.8616234801374951E-02   8   5   8   5
 -0.1410610045721526E-15   8   6   1   1
  0.6070301154874861E-16   8   6   2   1
 -0.6398143643529070E-16   8   6   2   2
 -0.2736785325266113E-16   8   6   3   1
 -0.2349933291392429E-16   8   6   3   2
 -0.1543207262651442E-15   8   6   3   3
  0.2861226037184523E-16   8   6   4   1
  0.8422957950602570E-17   8   6   4   2
 -0.8795017127353294E-17   8   6   4   3
 -0.4200971628617729E-16   8   6   4   4
  0.1100795035879649E-16   8   6   5   1
 -0.8228684562571047E-17   8   6   5   2
 -0.5277586451328901E-16   8   6   5   3
  0.1510591510167885E-16   8   6   5   4
 -0.1125279582962486E-15   8   6   5   5
  0.1937991846615236E-17   8   6   6   1
  0.4844161313813268E-16   8   6   6   2
 -0.2225950741613702E-16   8   6   6   3
 -0.1786060749825647E-16   8   6   6   4
 -0.5561549094963133E-17   8   6   6   5
 -0.9942597602530417E-16   8   6   6   6
 -0.2094641411681636E-16   8   6   7   1
  0.8350208448656110E-16   8   6   7   2
  0.2688300792762141E-17   8   6   7   3
  0.4389382542306828E-16   8   6   7   4
  0.2654445857121377E-16   8   6   7   5
  0.6595686017021246E-16   8   6   7   6
 -0.3166886067891724E-17   8   6   7   7
  0.6599368566167021E-02   8   6   8   1
 -0.9241674708574907E-02   8   6   8   2
 -0.1015020908627729E-01   8   6   8   3
  0.5450602486764501E-02   8   6   8   4
 -0.3610062904795764E-02   8   6   8   5
  0.1120878083995256E-01   8   6   8   6
  0.1369742856424743E-15   8   7   1   1
  0.1761597356117474E-15   8   7   2   1
  0.2703400354767640E-15   8   7   2   2
  0.3814471075794419E-16   8   7   3   1
 -0.2094816202282121E-15   8   7   3   2
 -0.2281946846110473E-15   8   7   3   3
 -0.8313983590736461E-16   8   7   4   1
  0.1916169988150136E-16   8   7   4   2
 -0.1672938051273076E-16   8   7   4   3
 -0.5441378544998593E-16   8   7   4   4
  0.3434489918286675E-17   8   7   5   1
 -0.4887729175701452E-16   8   7   5   2
 -0.6052946716480444E-16   8   7   5   3
  0.3175944736750455E-16   8   7   5   4
 -0.2316626152607258E-15   8   7   5   5
 -0.1105032052598339E-15   8   7   6   1
  0.1745551955466013E-15   8   7   6   2
 -0.7325809697262551E-16   8   7   6   3
  0.2110562837866358E-16   8   7   6   4
  0.1249901946547540E-16   8   7   6   5
 -0.2566939448057082E-16   8   7   6   6
  0.8110777097504472E-16   8   7   7   1
 -0.1222414640668676E-15   8   7   7   2
  0.2190816437045831E-16   8   7   7   3
  0.1320855248480419E-15   8   7   7   4
  0.7392576173142556E-16   8   7   7   5
  0.1183779591684127E-15   8   7   7   6
  0.1650335143473170E-15   8   7   7   7
 -0.1138396888579664E-01   8   7   8   1
  0.1089805949618047E-01   8   7   8   2
  0.1295726933338401E-01   8   7   8   3
 -0.1153996830833110E-01   8   7   8   4
 -0.1641522255502707E-02   8   7   8   5
 -0.7771228676631905E-02   8   7   8   6
  0.1361090232959252E-01   8   7   8   7
  0.4639146433903699E+00   8   8   1   1
 -0.7994430348247616E-01   8   8   2   1
  0.3915724854516379E+00   8   8   2   2
  0.9849596889004227E-02   8   8   3   1
  0.4646394187924353E-01   8   8   3   2
  0.5014465036201818E+00   8   8   3   3
 -0.1187282155182767E-02   8   8   4   1
 -0.2268287687738918E-01   8   8   4   2
 -0.1616099729014766E-01   8   8   4   3
  0.3336522008060937E+00   8   8   4   4
 -0.1455372554969049E-01   8   8   5   1
  0.2823030387847575E-01   8   8   5   2
  0.8689933280781359E-01   8   8   5   3
  0.1043337966980074E-01   8   8   5   4
  0.4286507423370858E+00   8   8   5   5
  0.3975066444206254E-01   8   8   6   1
 -0.7346323862229015E-01   8   8   6   2
  0.1531800918606635E-01   8   8   6   3
  0.2949750052446731E-01   8   8   6   4
 -0.6697655945364200E-02   8   8   6   5
  0.4665899563782703E+00   8   8   6   6
 -0.1461415878710137E-01   8   8   7   1
 -0.1484630489949362E-01   8   8   7   2
  0.1531942535936817E-01   8   8   7   3
 -0.6914774102535870E-01   8   8   7   4
 -0.2228143373025104E-01   8   8   7   5
 -0.6521074242283587E-01   8   8   7   6
  0.3553128630121614E+00   8   8   7   7
 -0.6923957920133138E-16   8   8   8   1
  0.1735459621210943E-16   8   8   8   2
  0.5169376539281723E-16   8   8   8   3
 -0.1214751358093862E-15   8   8   8   4
 -0.4997066902903823E-16   8   8   8   5
 -0.1406364983002953E-15   8   8   8   6
 -0.3077222008148625E-15   8   8   8   7
  0.5623063754566142E+00   8   8   8   8
 -0.9026389676583567E-01   9   1   1   1
  0.9300317926701111E-02   9   1   2   1
 -0.7736201223465804E-01   9   1   2   2
 -0.2112063855041078E-01   9   1   3   1
  0.2555044892250104E-01   9   1   3   2
 -0.3096521788957074E-01   9   1   3   3
  0.2482376986264727E-01   9   1   4   1
  0.3835389218971433E-02   9   1   4   2
  0.4306755207627355E-02   9   1   4   3
 -0.9258427707233268E-02   9   1   4   4
  0.5117530735217424E-02   9   1   5   1
  0.4392500711452052E-02   9   1   5   2
 -0.1097932224516163E-01   9   1   5   3
  0.3887786628938572E-03   9   1   5   4
 -0.1372331278322673E-01   9   1   5   5
 -0.4284953214607513E-03   9   1   6   1
  0.3083302036531836E-02   9   1   6   2
  0.2988763828776702E-02   9   1   6   3
 -0.1159357787694591E-01   9   1   6   4
 -0.1610774897843781E-02   9   1   6   5
 -0.5105370636290205E-01   9   1   6   6
 -0.1438083750019839E-01   9   1   7   1
  0.4435257541189089E-01   9   1   7   2
 -0.2118682930551979E-01   9   1   7   3
  0.6063847516546358E-02   9   1   7   4
 -0.4688182394413969E-02   9   1   7   5
  0.1533322752700524E-01   9   1   7   6
 -0.4462452107423818E-01   9   1   7   7
 -0.4838214493654735E-16   9   1   8   1
  0.7116520775252678E-16   9   1   8   2
 -0.4527281523351849E-16   9   1   8   3
  0.2022576038867425E-16   9   1   8   4
 -0.7068945574470996E-17   9   1   8   5
  0.4464449205359054E-16   9   1   8   6
 -0.6624413338591679E-16   9   1   8   7
 -0.1215300636976438E-01   9   1   8   8
  0.4262757793230945E-01   9   1   9   1
 -0.3799411836968691E-01   9   2   1   1
 -0.5068927821956508E-01   9   2   2   1
 -0.1037037125591690E+00   9   2   2   2
  0.9767378524307559E-02   9   2   3   1
  0.3280714085330486E-01   9   2   3   2
 -0.3718533621222936E-02   9   2   3   3
  0.1483601057307617E-01   9   2   4   1
  0.1683255480294579E-01   9   2   4   2
 -0.1170296112547702E-03   9   2   4   3
 -0.5509997081235828E-02   9   2   4   4